 Entering Gaussian System, Link 0=/opt/g16avx/g16
 Input=bispidine_b.gjf
 Output=bispidine_b.log
 Initial command:
 /opt/g16avx/l1.exe "/home/scratch/Gau-46922.inp" -scrdir="/home/scratch/"
 Entering Link 1 = /opt/g16avx/l1.exe PID=     46927.
  
 Copyright (c) 1988,1990,1992,1993,1995,1998,2003,2009,2016,
            Gaussian, Inc.  All Rights Reserved.
  
 This is part of the Gaussian(R) 16 program.  It is based on
 the Gaussian(R) 09 system (copyright 2009, Gaussian, Inc.),
 the Gaussian(R) 03 system (copyright 2003, Gaussian, Inc.),
 the Gaussian(R) 98 system (copyright 1998, Gaussian, Inc.),
 the Gaussian(R) 94 system (copyright 1995, Gaussian, Inc.),
 the Gaussian 92(TM) system (copyright 1992, Gaussian, Inc.),
 the Gaussian 90(TM) system (copyright 1990, Gaussian, Inc.),
 the Gaussian 88(TM) system (copyright 1988, Gaussian, Inc.),
 the Gaussian 86(TM) system (copyright 1986, Carnegie Mellon
 University), and the Gaussian 82(TM) system (copyright 1983,
 Carnegie Mellon University). Gaussian is a federally registered
 trademark of Gaussian, Inc.
  
 This software contains proprietary and confidential information,
 including trade secrets, belonging to Gaussian, Inc.
  
 This software is provided under written license and may be
 used, copied, transmitted, or stored only in accord with that
 written license.
  
 The following legend is applicable only to US Government
 contracts under FAR:
  
                    RESTRICTED RIGHTS LEGEND
  
 Use, reproduction and disclosure by the US Government is
 subject to restrictions as set forth in subparagraphs (a)
 and (c) of the Commercial Computer Software - Restricted
 Rights clause in FAR 52.227-19.
  
 Gaussian, Inc.
 340 Quinnipiac St., Bldg. 40, Wallingford CT 06492
  
  
 ---------------------------------------------------------------
 Warning -- This program may not be used in any manner that
 competes with the business of Gaussian, Inc. or will provide
 assistance to any competitor of Gaussian, Inc.  The licensee
 of this program is prohibited from giving any competitor of
 Gaussian, Inc. access to this program.  By using this program,
 the user acknowledges that Gaussian, Inc. is engaged in the
 business of creating and licensing software in the field of
 computational chemistry and represents and warrants to the
 licensee that it is not a competitor of Gaussian, Inc. and that
 it will not use this program in any manner prohibited above.
 ---------------------------------------------------------------
  

 Cite this work as:
 Gaussian 16, Revision A.03,
 M. J. Frisch, G. W. Trucks, H. B. Schlegel, G. E. Scuseria, 
 M. A. Robb, J. R. Cheeseman, G. Scalmani, V. Barone, 
 G. A. Petersson, H. Nakatsuji, X. Li, M. Caricato, A. V. Marenich, 
 J. Bloino, B. G. Janesko, R. Gomperts, B. Mennucci, H. P. Hratchian, 
 J. V. Ortiz, A. F. Izmaylov, J. L. Sonnenberg, D. Williams-Young, 
 F. Ding, F. Lipparini, F. Egidi, J. Goings, B. Peng, A. Petrone, 
 T. Henderson, D. Ranasinghe, V. G. Zakrzewski, J. Gao, N. Rega, 
 G. Zheng, W. Liang, M. Hada, M. Ehara, K. Toyota, R. Fukuda, 
 J. Hasegawa, M. Ishida, T. Nakajima, Y. Honda, O. Kitao, H. Nakai, 
 T. Vreven, K. Throssell, J. A. Montgomery, Jr., J. E. Peralta, 
 F. Ogliaro, M. J. Bearpark, J. J. Heyd, E. N. Brothers, K. N. Kudin, 
 V. N. Staroverov, T. A. Keith, R. Kobayashi, J. Normand, 
 K. Raghavachari, A. P. Rendell, J. C. Burant, S. S. Iyengar, 
 J. Tomasi, M. Cossi, J. M. Millam, M. Klene, C. Adamo, R. Cammi, 
 J. W. Ochterski, R. L. Martin, K. Morokuma, O. Farkas, 
 J. B. Foresman, and D. J. Fox, Gaussian, Inc., Wallingford CT, 2016.
 
 ******************************************
 Gaussian 16:  ES64L-G16RevA.03 25-Dec-2016
                12-Mar-2021 
 ******************************************
 %chk=bisp_b.chk
 %nprocshared=20
 Will use up to   20 processors via shared memory.
 %mem=20Gb
 ----------------------------------------------------------------------
 #p opt PBE1PBE/DEF2SVP empiricaldispersion=gd3bj scrf=(SMD, solvent=Be
 nzene) freq=noraman pop=saveNBOs
 ----------------------------------------------------------------------
 1/18=20,19=15,26=3,38=1/1,3;
 2/9=110,12=2,17=6,18=5,40=1/2;
 3/5=43,7=101,11=2,25=1,30=1,70=32201,71=1,72=12,74=-13,124=41/1,2,3;
 4//1;
 5/5=2,38=5,53=12/2;
 6/7=2,8=2,9=2,10=2,28=1,40=1,73=1/1,7;
 7//1,2,3,16;
 1/18=20,19=15,26=3/3(2);
 2/9=110/2;
 99//99;
 2/9=110/2;
 3/5=43,7=101,11=2,25=1,30=1,70=32205,71=1,72=12,74=-13,124=41/1,2,3;
 4/5=5,16=3,69=1/1;
 5/5=2,38=5,53=12/2;
 7//1,2,3,16;
 1/18=20,19=15,26=3/3(-5);
 2/9=110/2;
 6/7=2,8=2,9=2,10=2,19=2,28=1,40=1,73=1/1,7;
 99/9=1/99;
 Leave Link    1 at Fri Mar 12 17:02:16 2021, MaxMem=  2684354560 cpu:               2.2 elap:               0.1
 (Enter /opt/g16avx/l101.exe)
 ---------------
 Vatsadze, way 1
 ---------------
 Symbolic Z-matrix:
 Charge =  0 Multiplicity = 1
 N                     3.17318   0.58606  -0.69864 
 C                     2.20819   1.64734  -0.46877 
 C                     2.5672   -0.46439  -1.50063 
 H                     2.70681   2.44286   0.0934 
 H                     1.90292   2.05388  -1.43786 
 C                     0.98084   1.13729   0.3132 
 H                     3.32727  -1.22716  -1.69256 
 H                     2.26319  -0.0352   -2.46023 
 C                     1.35991  -1.08836  -0.77902 
 C                     1.51637   0.51773   1.61718 
 C                     0.31498   0.03203  -0.5443 
 C                     1.86345  -1.59678   0.58268 
 H                     2.00312   1.28904   2.22207 
 H                     0.70719   0.08629   2.21464 
 N                     2.48933  -0.52707   1.34608 
 H                     0.06547   0.46339  -1.52444 
 H                     2.60689  -2.38584   0.43674 
 H                     1.03706  -2.00914   1.16602 
 N                    -0.90641  -0.53828  -0.01264 
 H                    -0.90152  -0.57399   0.99867 
 C                     0.02865   2.29055   0.61242 
 H                    -0.79082   1.96408   1.24952 
 H                     0.5581    3.08846   1.13066 
 H                    -0.38376   2.69536  -0.31025 
 C                     0.75869  -2.22338  -1.59816 
 H                    -0.11836  -2.61458  -1.08994 
 H                     0.46163  -1.86345  -2.58129 
 H                     1.48337  -3.02447  -1.72693 
 C                     3.591     0.03103   0.57943 
 H                     4.0629    0.82303   1.16762 
 H                     4.32547  -0.75742   0.39516 
 C                    -2.17166  -0.0224   -0.50089 
 H                    -2.44679   0.95768  -0.07617 
 H                    -2.08561   0.09235  -1.5854 
 C                    -3.24943  -1.02744  -0.18864 
 C                    -3.36468  -2.18045  -0.95483 
 C                    -4.10977  -0.8458    0.88477 
 C                    -4.32706  -3.12816  -0.65967 
 C                    -5.07471  -1.79306   1.1822 
 C                    -5.18602  -2.93558   0.40967 
 H                    -2.69366  -2.32897  -1.78784 
 H                    -4.02981   0.04685   1.49021 
 H                    -4.41045  -4.01842  -1.26606 
 H                    -5.7412   -1.63804   2.01834 
 H                    -5.94038  -3.67376   0.63928 
 
 ITRead=  0  0  0  0  0  0  0  0  0  0  0  0  0  0  0  0  0  0  0  0
 ITRead=  0  0  0  0  0  0  0  0  0  0  0  0  0  0  0  0  0  0  0  0
 ITRead=  0  0  0  0  0
 MicOpt= -1 -1 -1 -1 -1 -1 -1 -1 -1 -1 -1 -1 -1 -1 -1 -1 -1 -1 -1 -1
 MicOpt= -1 -1 -1 -1 -1 -1 -1 -1 -1 -1 -1 -1 -1 -1 -1 -1 -1 -1 -1 -1
 MicOpt= -1 -1 -1 -1 -1
 NAtoms=     45 NQM=       45 NQMF=       0 NMMI=      0 NMMIF=      0
                NMic=       0 NMicF=      0.
                    Isotopes and Nuclear Properties:
 (Nuclear quadrupole moments (NQMom) in fm**2, nuclear magnetic moments (NMagM)
  in nuclear magnetons)

  Atom         1           2           3           4           5           6           7           8           9          10
 IAtWgt=          14          12          12           1           1          12           1           1          12          12
 AtmWgt=  14.0030740  12.0000000  12.0000000   1.0078250   1.0078250  12.0000000   1.0078250   1.0078250  12.0000000  12.0000000
 NucSpn=           2           0           0           1           1           0           1           1           0           0
 AtZEff=  -0.0000000  -0.0000000  -0.0000000  -0.0000000  -0.0000000  -0.0000000  -0.0000000  -0.0000000  -0.0000000  -0.0000000
 NQMom=    2.0440000   0.0000000   0.0000000   0.0000000   0.0000000   0.0000000   0.0000000   0.0000000   0.0000000   0.0000000
 NMagM=    0.4037610   0.0000000   0.0000000   2.7928460   2.7928460   0.0000000   2.7928460   2.7928460   0.0000000   0.0000000
 AtZNuc=   7.0000000   6.0000000   6.0000000   1.0000000   1.0000000   6.0000000   1.0000000   1.0000000   6.0000000   6.0000000

  Atom        11          12          13          14          15          16          17          18          19          20
 IAtWgt=          12          12           1           1          14           1           1           1          14           1
 AtmWgt=  12.0000000  12.0000000   1.0078250   1.0078250  14.0030740   1.0078250   1.0078250   1.0078250  14.0030740   1.0078250
 NucSpn=           0           0           1           1           2           1           1           1           2           1
 AtZEff=  -0.0000000  -0.0000000  -0.0000000  -0.0000000  -0.0000000  -0.0000000  -0.0000000  -0.0000000  -0.0000000  -0.0000000
 NQMom=    0.0000000   0.0000000   0.0000000   0.0000000   2.0440000   0.0000000   0.0000000   0.0000000   2.0440000   0.0000000
 NMagM=    0.0000000   0.0000000   2.7928460   2.7928460   0.4037610   2.7928460   2.7928460   2.7928460   0.4037610   2.7928460
 AtZNuc=   6.0000000   6.0000000   1.0000000   1.0000000   7.0000000   1.0000000   1.0000000   1.0000000   7.0000000   1.0000000

  Atom        21          22          23          24          25          26          27          28          29          30
 IAtWgt=          12           1           1           1          12           1           1           1          12           1
 AtmWgt=  12.0000000   1.0078250   1.0078250   1.0078250  12.0000000   1.0078250   1.0078250   1.0078250  12.0000000   1.0078250
 NucSpn=           0           1           1           1           0           1           1           1           0           1
 AtZEff=  -0.0000000  -0.0000000  -0.0000000  -0.0000000  -0.0000000  -0.0000000  -0.0000000  -0.0000000  -0.0000000  -0.0000000
 NQMom=    0.0000000   0.0000000   0.0000000   0.0000000   0.0000000   0.0000000   0.0000000   0.0000000   0.0000000   0.0000000
 NMagM=    0.0000000   2.7928460   2.7928460   2.7928460   0.0000000   2.7928460   2.7928460   2.7928460   0.0000000   2.7928460
 AtZNuc=   6.0000000   1.0000000   1.0000000   1.0000000   6.0000000   1.0000000   1.0000000   1.0000000   6.0000000   1.0000000

  Atom        31          32          33          34          35          36          37          38          39          40
 IAtWgt=           1          12           1           1          12          12          12          12          12          12
 AtmWgt=   1.0078250  12.0000000   1.0078250   1.0078250  12.0000000  12.0000000  12.0000000  12.0000000  12.0000000  12.0000000
 NucSpn=           1           0           1           1           0           0           0           0           0           0
 AtZEff=  -0.0000000  -0.0000000  -0.0000000  -0.0000000  -0.0000000  -0.0000000  -0.0000000  -0.0000000  -0.0000000  -0.0000000
 NQMom=    0.0000000   0.0000000   0.0000000   0.0000000   0.0000000   0.0000000   0.0000000   0.0000000   0.0000000   0.0000000
 NMagM=    2.7928460   0.0000000   2.7928460   2.7928460   0.0000000   0.0000000   0.0000000   0.0000000   0.0000000   0.0000000
 AtZNuc=   1.0000000   6.0000000   1.0000000   1.0000000   6.0000000   6.0000000   6.0000000   6.0000000   6.0000000   6.0000000

  Atom        41          42          43          44          45
 IAtWgt=           1           1           1           1           1
 AtmWgt=   1.0078250   1.0078250   1.0078250   1.0078250   1.0078250
 NucSpn=           1           1           1           1           1
 AtZEff=  -0.0000000  -0.0000000  -0.0000000  -0.0000000  -0.0000000
 NQMom=    0.0000000   0.0000000   0.0000000   0.0000000   0.0000000
 NMagM=    2.7928460   2.7928460   2.7928460   2.7928460   2.7928460
 AtZNuc=   1.0000000   1.0000000   1.0000000   1.0000000   1.0000000
 Leave Link  101 at Fri Mar 12 17:02:17 2021, MaxMem=  2684354560 cpu:               7.8 elap:               0.4
 (Enter /opt/g16avx/l103.exe)

 GradGradGradGradGradGradGradGradGradGradGradGradGradGradGradGradGradGrad
 Berny optimization.
 Initialization pass.
                           ----------------------------
                           !    Initial Parameters    !
                           ! (Angstroms and Degrees)  !
 --------------------------                            --------------------------
 ! Name  Definition              Value          Derivative Info.                !
 --------------------------------------------------------------------------------
 ! R1    R(1,2)                  1.4527         estimate D2E/DX2                !
 ! R2    R(1,3)                  1.4539         estimate D2E/DX2                !
 ! R3    R(1,29)                 1.4547         estimate D2E/DX2                !
 ! R4    R(2,4)                  1.0943         estimate D2E/DX2                !
 ! R5    R(2,5)                  1.0943         estimate D2E/DX2                !
 ! R6    R(2,6)                  1.5421         estimate D2E/DX2                !
 ! R7    R(3,7)                  1.0938         estimate D2E/DX2                !
 ! R8    R(3,8)                  1.0943         estimate D2E/DX2                !
 ! R9    R(3,9)                  1.5387         estimate D2E/DX2                !
 ! R10   R(6,10)                 1.5398         estimate D2E/DX2                !
 ! R11   R(6,11)                 1.5493         estimate D2E/DX2                !
 ! R12   R(6,21)                 1.5252         estimate D2E/DX2                !
 ! R13   R(9,11)                 1.5499         estimate D2E/DX2                !
 ! R14   R(9,12)                 1.5383         estimate D2E/DX2                !
 ! R15   R(9,25)                 1.5234         estimate D2E/DX2                !
 ! R16   R(10,13)                1.0944         estimate D2E/DX2                !
 ! R17   R(10,14)                1.0945         estimate D2E/DX2                !
 ! R18   R(10,15)                1.4532         estimate D2E/DX2                !
 ! R19   R(11,16)                1.0995         estimate D2E/DX2                !
 ! R20   R(11,19)                1.449          estimate D2E/DX2                !
 ! R21   R(12,15)                1.4556         estimate D2E/DX2                !
 ! R22   R(12,17)                1.0939         estimate D2E/DX2                !
 ! R23   R(12,18)                1.0924         estimate D2E/DX2                !
 ! R24   R(15,29)                1.4536         estimate D2E/DX2                !
 ! R25   R(19,20)                1.012          estimate D2E/DX2                !
 ! R26   R(19,32)                1.451          estimate D2E/DX2                !
 ! R27   R(21,22)                1.0881         estimate D2E/DX2                !
 ! R28   R(21,23)                1.0888         estimate D2E/DX2                !
 ! R29   R(21,24)                1.0887         estimate D2E/DX2                !
 ! R30   R(25,26)                1.0865         estimate D2E/DX2                !
 ! R31   R(25,27)                1.0883         estimate D2E/DX2                !
 ! R32   R(25,28)                1.0879         estimate D2E/DX2                !
 ! R33   R(29,30)                1.0936         estimate D2E/DX2                !
 ! R34   R(29,31)                1.0932         estimate D2E/DX2                !
 ! R35   R(32,33)                1.103          estimate D2E/DX2                !
 ! R36   R(32,34)                1.0939         estimate D2E/DX2                !
 ! R37   R(32,35)                1.5064         estimate D2E/DX2                !
 ! R38   R(35,36)                1.3892         estimate D2E/DX2                !
 ! R39   R(35,37)                1.3876         estimate D2E/DX2                !
 ! R40   R(36,38)                1.3826         estimate D2E/DX2                !
 ! R41   R(36,41)                1.0799         estimate D2E/DX2                !
 ! R42   R(37,39)                1.3845         estimate D2E/DX2                !
 ! R43   R(37,42)                1.0816         estimate D2E/DX2                !
 ! R44   R(38,40)                1.3851         estimate D2E/DX2                !
 ! R45   R(38,43)                1.0804         estimate D2E/DX2                !
 ! R46   R(39,40)                1.3837         estimate D2E/DX2                !
 ! R47   R(39,44)                1.0805         estimate D2E/DX2                !
 ! R48   R(40,45)                1.0801         estimate D2E/DX2                !
 ! A1    A(2,1,3)              109.77           estimate D2E/DX2                !
 ! A2    A(2,1,29)             109.3002         estimate D2E/DX2                !
 ! A3    A(3,1,29)             109.1892         estimate D2E/DX2                !
 ! A4    A(1,2,4)              108.0409         estimate D2E/DX2                !
 ! A5    A(1,2,5)              108.4556         estimate D2E/DX2                !
 ! A6    A(1,2,6)              111.5488         estimate D2E/DX2                !
 ! A7    A(4,2,5)              108.1785         estimate D2E/DX2                !
 ! A8    A(4,2,6)              110.035          estimate D2E/DX2                !
 ! A9    A(5,2,6)              110.4813         estimate D2E/DX2                !
 ! A10   A(1,3,7)              108.1205         estimate D2E/DX2                !
 ! A11   A(1,3,8)              108.43           estimate D2E/DX2                !
 ! A12   A(1,3,9)              111.1811         estimate D2E/DX2                !
 ! A13   A(7,3,8)              108.2213         estimate D2E/DX2                !
 ! A14   A(7,3,9)              110.1648         estimate D2E/DX2                !
 ! A15   A(8,3,9)              110.6294         estimate D2E/DX2                !
 ! A16   A(2,6,10)             106.6005         estimate D2E/DX2                !
 ! A17   A(2,6,11)             107.2992         estimate D2E/DX2                !
 ! A18   A(2,6,21)             110.2593         estimate D2E/DX2                !
 ! A19   A(10,6,11)            109.3384         estimate D2E/DX2                !
 ! A20   A(10,6,21)            110.8083         estimate D2E/DX2                !
 ! A21   A(11,6,21)            112.315          estimate D2E/DX2                !
 ! A22   A(3,9,11)             107.8698         estimate D2E/DX2                !
 ! A23   A(3,9,12)             106.9979         estimate D2E/DX2                !
 ! A24   A(3,9,25)             111.0766         estimate D2E/DX2                !
 ! A25   A(11,9,12)            108.9993         estimate D2E/DX2                !
 ! A26   A(11,9,25)            110.7283         estimate D2E/DX2                !
 ! A27   A(12,9,25)            111.0342         estimate D2E/DX2                !
 ! A28   A(6,10,13)            109.8263         estimate D2E/DX2                !
 ! A29   A(6,10,14)            111.3309         estimate D2E/DX2                !
 ! A30   A(6,10,15)            111.3564         estimate D2E/DX2                !
 ! A31   A(13,10,14)           107.7534         estimate D2E/DX2                !
 ! A32   A(13,10,15)           108.1825         estimate D2E/DX2                !
 ! A33   A(14,10,15)           108.2661         estimate D2E/DX2                !
 ! A34   A(6,11,9)             108.0447         estimate D2E/DX2                !
 ! A35   A(6,11,16)            108.1215         estimate D2E/DX2                !
 ! A36   A(6,11,19)            116.1015         estimate D2E/DX2                !
 ! A37   A(9,11,16)            107.5528         estimate D2E/DX2                !
 ! A38   A(9,11,19)            109.8357         estimate D2E/DX2                !
 ! A39   A(16,11,19)           106.8699         estimate D2E/DX2                !
 ! A40   A(9,12,15)            111.23           estimate D2E/DX2                !
 ! A41   A(9,12,17)            110.0459         estimate D2E/DX2                !
 ! A42   A(9,12,18)            110.4777         estimate D2E/DX2                !
 ! A43   A(15,12,17)           107.9295         estimate D2E/DX2                !
 ! A44   A(15,12,18)           108.8228         estimate D2E/DX2                !
 ! A45   A(17,12,18)           108.2461         estimate D2E/DX2                !
 ! A46   A(10,15,12)           109.7747         estimate D2E/DX2                !
 ! A47   A(10,15,29)           109.2553         estimate D2E/DX2                !
 ! A48   A(12,15,29)           109.3558         estimate D2E/DX2                !
 ! A49   A(11,19,20)           112.1168         estimate D2E/DX2                !
 ! A50   A(11,19,32)           118.1384         estimate D2E/DX2                !
 ! A51   A(20,19,32)           110.6735         estimate D2E/DX2                !
 ! A52   A(6,21,22)            110.9872         estimate D2E/DX2                !
 ! A53   A(6,21,23)            110.1154         estimate D2E/DX2                !
 ! A54   A(6,21,24)            110.5722         estimate D2E/DX2                !
 ! A55   A(22,21,23)           107.9018         estimate D2E/DX2                !
 ! A56   A(22,21,24)           108.8138         estimate D2E/DX2                !
 ! A57   A(23,21,24)           108.367          estimate D2E/DX2                !
 ! A58   A(9,25,26)            109.5911         estimate D2E/DX2                !
 ! A59   A(9,25,27)            110.3082         estimate D2E/DX2                !
 ! A60   A(9,25,28)            110.4498         estimate D2E/DX2                !
 ! A61   A(26,25,27)           108.7417         estimate D2E/DX2                !
 ! A62   A(26,25,28)           109.1446         estimate D2E/DX2                !
 ! A63   A(27,25,28)           108.5692         estimate D2E/DX2                !
 ! A64   A(1,29,15)            113.0911         estimate D2E/DX2                !
 ! A65   A(1,29,30)            108.6734         estimate D2E/DX2                !
 ! A66   A(1,29,31)            108.6674         estimate D2E/DX2                !
 ! A67   A(15,29,30)           108.7497         estimate D2E/DX2                !
 ! A68   A(15,29,31)           108.7344         estimate D2E/DX2                !
 ! A69   A(30,29,31)           108.8494         estimate D2E/DX2                !
 ! A70   A(19,32,33)           113.8189         estimate D2E/DX2                !
 ! A71   A(19,32,34)           107.5956         estimate D2E/DX2                !
 ! A72   A(19,32,35)           108.4768         estimate D2E/DX2                !
 ! A73   A(33,32,34)           107.9482         estimate D2E/DX2                !
 ! A74   A(33,32,35)           109.5446         estimate D2E/DX2                !
 ! A75   A(34,32,35)           109.3751         estimate D2E/DX2                !
 ! A76   A(32,35,36)           119.9204         estimate D2E/DX2                !
 ! A77   A(32,35,37)           121.1064         estimate D2E/DX2                !
 ! A78   A(36,35,37)           118.939          estimate D2E/DX2                !
 ! A79   A(35,36,38)           120.594          estimate D2E/DX2                !
 ! A80   A(35,36,41)           119.2123         estimate D2E/DX2                !
 ! A81   A(38,36,41)           120.1936         estimate D2E/DX2                !
 ! A82   A(35,37,39)           120.581          estimate D2E/DX2                !
 ! A83   A(35,37,42)           119.6853         estimate D2E/DX2                !
 ! A84   A(39,37,42)           119.7324         estimate D2E/DX2                !
 ! A85   A(36,38,40)           120.0794         estimate D2E/DX2                !
 ! A86   A(36,38,43)           119.918          estimate D2E/DX2                !
 ! A87   A(40,38,43)           120.0024         estimate D2E/DX2                !
 ! A88   A(37,39,40)           120.0707         estimate D2E/DX2                !
 ! A89   A(37,39,44)           119.8684         estimate D2E/DX2                !
 ! A90   A(40,39,44)           120.0609         estimate D2E/DX2                !
 ! A91   A(38,40,39)           119.734          estimate D2E/DX2                !
 ! A92   A(38,40,45)           120.1461         estimate D2E/DX2                !
 ! A93   A(39,40,45)           120.1199         estimate D2E/DX2                !
 ! D1    D(3,1,2,4)           -177.2544         estimate D2E/DX2                !
 ! D2    D(3,1,2,5)            -60.2152         estimate D2E/DX2                !
 ! D3    D(3,1,2,6)             61.681          estimate D2E/DX2                !
 ! D4    D(29,1,2,4)            63.0135         estimate D2E/DX2                !
 ! D5    D(29,1,2,5)          -179.9474         estimate D2E/DX2                !
 ! D6    D(29,1,2,6)           -58.0512         estimate D2E/DX2                !
 ! D7    D(2,1,3,7)            177.6472         estimate D2E/DX2                !
 ! D8    D(2,1,3,8)             60.528          estimate D2E/DX2                !
 ! D9    D(2,1,3,9)            -61.3022         estimate D2E/DX2                !
 ! D10   D(29,1,3,7)           -62.553          estimate D2E/DX2                !
 ! D11   D(29,1,3,8)          -179.6722         estimate D2E/DX2                !
 ! D12   D(29,1,3,9)            58.4977         estimate D2E/DX2                !
 ! D13   D(2,1,29,15)           59.8521         estimate D2E/DX2                !
 ! D14   D(2,1,29,30)          -61.0077         estimate D2E/DX2                !
 ! D15   D(2,1,29,31)         -179.3117         estimate D2E/DX2                !
 ! D16   D(3,1,29,15)          -60.2371         estimate D2E/DX2                !
 ! D17   D(3,1,29,30)          178.9031         estimate D2E/DX2                !
 ! D18   D(3,1,29,31)           60.599          estimate D2E/DX2                !
 ! D19   D(1,2,6,10)            56.1947         estimate D2E/DX2                !
 ! D20   D(1,2,6,11)           -60.8555         estimate D2E/DX2                !
 ! D21   D(1,2,6,21)           176.5377         estimate D2E/DX2                !
 ! D22   D(4,2,6,10)           -63.7008         estimate D2E/DX2                !
 ! D23   D(4,2,6,11)           179.249          estimate D2E/DX2                !
 ! D24   D(4,2,6,21)            56.6422         estimate D2E/DX2                !
 ! D25   D(5,2,6,10)           176.9134         estimate D2E/DX2                !
 ! D26   D(5,2,6,11)            59.8632         estimate D2E/DX2                !
 ! D27   D(5,2,6,21)           -62.7436         estimate D2E/DX2                !
 ! D28   D(1,3,9,11)            60.5981         estimate D2E/DX2                !
 ! D29   D(1,3,9,12)           -56.5468         estimate D2E/DX2                !
 ! D30   D(1,3,9,25)          -177.8819         estimate D2E/DX2                !
 ! D31   D(7,3,9,11)          -179.5586         estimate D2E/DX2                !
 ! D32   D(7,3,9,12)            63.2966         estimate D2E/DX2                !
 ! D33   D(7,3,9,25)           -58.0386         estimate D2E/DX2                !
 ! D34   D(8,3,9,11)           -59.9431         estimate D2E/DX2                !
 ! D35   D(8,3,9,12)          -177.088          estimate D2E/DX2                !
 ! D36   D(8,3,9,25)            61.5769         estimate D2E/DX2                !
 ! D37   D(2,6,10,13)           63.3962         estimate D2E/DX2                !
 ! D38   D(2,6,10,14)         -177.3445         estimate D2E/DX2                !
 ! D39   D(2,6,10,15)          -56.4149         estimate D2E/DX2                !
 ! D40   D(11,6,10,13)         179.0844         estimate D2E/DX2                !
 ! D41   D(11,6,10,14)         -61.6563         estimate D2E/DX2                !
 ! D42   D(11,6,10,15)          59.2734         estimate D2E/DX2                !
 ! D43   D(21,6,10,13)         -56.593          estimate D2E/DX2                !
 ! D44   D(21,6,10,14)          62.6663         estimate D2E/DX2                !
 ! D45   D(21,6,10,15)        -176.4041         estimate D2E/DX2                !
 ! D46   D(2,6,11,9)            59.0855         estimate D2E/DX2                !
 ! D47   D(2,6,11,16)          -57.0411         estimate D2E/DX2                !
 ! D48   D(2,6,11,19)         -177.0647         estimate D2E/DX2                !
 ! D49   D(10,6,11,9)          -56.1555         estimate D2E/DX2                !
 ! D50   D(10,6,11,16)        -172.2821         estimate D2E/DX2                !
 ! D51   D(10,6,11,19)          67.6942         estimate D2E/DX2                !
 ! D52   D(21,6,11,9)         -179.5913         estimate D2E/DX2                !
 ! D53   D(21,6,11,16)          64.2821         estimate D2E/DX2                !
 ! D54   D(21,6,11,19)         -55.7416         estimate D2E/DX2                !
 ! D55   D(2,6,21,22)         -174.2664         estimate D2E/DX2                !
 ! D56   D(2,6,21,23)          -54.8527         estimate D2E/DX2                !
 ! D57   D(2,6,21,24)           64.8758         estimate D2E/DX2                !
 ! D58   D(10,6,21,22)         -56.4877         estimate D2E/DX2                !
 ! D59   D(10,6,21,23)          62.9259         estimate D2E/DX2                !
 ! D60   D(10,6,21,24)        -177.3456         estimate D2E/DX2                !
 ! D61   D(11,6,21,22)          66.1217         estimate D2E/DX2                !
 ! D62   D(11,6,21,23)        -174.4647         estimate D2E/DX2                !
 ! D63   D(11,6,21,24)         -54.7362         estimate D2E/DX2                !
 ! D64   D(3,9,11,6)           -59.3015         estimate D2E/DX2                !
 ! D65   D(3,9,11,16)           57.1951         estimate D2E/DX2                !
 ! D66   D(3,9,11,19)          173.1505         estimate D2E/DX2                !
 ! D67   D(12,9,11,6)           56.5386         estimate D2E/DX2                !
 ! D68   D(12,9,11,16)         173.0353         estimate D2E/DX2                !
 ! D69   D(12,9,11,19)         -71.0094         estimate D2E/DX2                !
 ! D70   D(25,9,11,6)          178.9625         estimate D2E/DX2                !
 ! D71   D(25,9,11,16)         -64.5408         estimate D2E/DX2                !
 ! D72   D(25,9,11,19)          51.4145         estimate D2E/DX2                !
 ! D73   D(3,9,12,15)           56.2469         estimate D2E/DX2                !
 ! D74   D(3,9,12,17)          -63.3111         estimate D2E/DX2                !
 ! D75   D(3,9,12,18)          177.2146         estimate D2E/DX2                !
 ! D76   D(11,9,12,15)         -60.1517         estimate D2E/DX2                !
 ! D77   D(11,9,12,17)        -179.7097         estimate D2E/DX2                !
 ! D78   D(11,9,12,18)          60.816          estimate D2E/DX2                !
 ! D79   D(25,9,12,15)         177.6088         estimate D2E/DX2                !
 ! D80   D(25,9,12,17)          58.0508         estimate D2E/DX2                !
 ! D81   D(25,9,12,18)         -61.4235         estimate D2E/DX2                !
 ! D82   D(3,9,25,26)         -177.3305         estimate D2E/DX2                !
 ! D83   D(3,9,25,27)          -57.6368         estimate D2E/DX2                !
 ! D84   D(3,9,25,28)           62.3891         estimate D2E/DX2                !
 ! D85   D(11,9,25,26)         -57.4982         estimate D2E/DX2                !
 ! D86   D(11,9,25,27)          62.1955         estimate D2E/DX2                !
 ! D87   D(11,9,25,28)        -177.7786         estimate D2E/DX2                !
 ! D88   D(12,9,25,26)          63.7312         estimate D2E/DX2                !
 ! D89   D(12,9,25,27)        -176.5751         estimate D2E/DX2                !
 ! D90   D(12,9,25,28)         -56.5492         estimate D2E/DX2                !
 ! D91   D(6,10,15,12)         -61.2766         estimate D2E/DX2                !
 ! D92   D(6,10,15,29)          58.635          estimate D2E/DX2                !
 ! D93   D(13,10,15,12)        177.9433         estimate D2E/DX2                !
 ! D94   D(13,10,15,29)        -62.1451         estimate D2E/DX2                !
 ! D95   D(14,10,15,12)         61.4314         estimate D2E/DX2                !
 ! D96   D(14,10,15,29)       -178.657          estimate D2E/DX2                !
 ! D97   D(6,11,19,20)         -33.2579         estimate D2E/DX2                !
 ! D98   D(6,11,19,32)          97.2464         estimate D2E/DX2                !
 ! D99   D(9,11,19,20)          89.659          estimate D2E/DX2                !
 ! D100  D(9,11,19,32)        -139.8367         estimate D2E/DX2                !
 ! D101  D(16,11,19,20)       -153.9551         estimate D2E/DX2                !
 ! D102  D(16,11,19,32)        -23.4508         estimate D2E/DX2                !
 ! D103  D(9,12,15,10)          61.825          estimate D2E/DX2                !
 ! D104  D(9,12,15,29)         -58.0253         estimate D2E/DX2                !
 ! D105  D(17,12,15,10)       -177.3649         estimate D2E/DX2                !
 ! D106  D(17,12,15,29)         62.7848         estimate D2E/DX2                !
 ! D107  D(18,12,15,10)        -60.1089         estimate D2E/DX2                !
 ! D108  D(18,12,15,29)       -179.9592         estimate D2E/DX2                !
 ! D109  D(10,15,29,1)         -60.1635         estimate D2E/DX2                !
 ! D110  D(10,15,29,30)         60.653          estimate D2E/DX2                !
 ! D111  D(10,15,29,31)        179.0384         estimate D2E/DX2                !
 ! D112  D(12,15,29,1)          60.0055         estimate D2E/DX2                !
 ! D113  D(12,15,29,30)       -179.178          estimate D2E/DX2                !
 ! D114  D(12,15,29,31)        -60.7926         estimate D2E/DX2                !
 ! D115  D(11,19,32,33)        -76.4772         estimate D2E/DX2                !
 ! D116  D(11,19,32,34)         43.0857         estimate D2E/DX2                !
 ! D117  D(11,19,32,35)        161.3096         estimate D2E/DX2                !
 ! D118  D(20,19,32,33)         54.6815         estimate D2E/DX2                !
 ! D119  D(20,19,32,34)        174.2445         estimate D2E/DX2                !
 ! D120  D(20,19,32,35)        -67.5316         estimate D2E/DX2                !
 ! D121  D(19,32,35,36)        -76.2606         estimate D2E/DX2                !
 ! D122  D(19,32,35,37)        101.5909         estimate D2E/DX2                !
 ! D123  D(33,32,35,36)        158.9578         estimate D2E/DX2                !
 ! D124  D(33,32,35,37)        -23.1907         estimate D2E/DX2                !
 ! D125  D(34,32,35,36)         40.828          estimate D2E/DX2                !
 ! D126  D(34,32,35,37)       -141.3205         estimate D2E/DX2                !
 ! D127  D(32,35,36,38)        178.361          estimate D2E/DX2                !
 ! D128  D(32,35,36,41)         -1.7555         estimate D2E/DX2                !
 ! D129  D(37,35,36,38)          0.463          estimate D2E/DX2                !
 ! D130  D(37,35,36,41)       -179.6535         estimate D2E/DX2                !
 ! D131  D(32,35,37,39)       -178.359          estimate D2E/DX2                !
 ! D132  D(32,35,37,42)          2.0464         estimate D2E/DX2                !
 ! D133  D(36,35,37,39)         -0.4868         estimate D2E/DX2                !
 ! D134  D(36,35,37,42)        179.9186         estimate D2E/DX2                !
 ! D135  D(35,36,38,40)         -0.1498         estimate D2E/DX2                !
 ! D136  D(35,36,38,43)        179.6731         estimate D2E/DX2                !
 ! D137  D(41,36,38,40)        179.9678         estimate D2E/DX2                !
 ! D138  D(41,36,38,43)         -0.2093         estimate D2E/DX2                !
 ! D139  D(35,37,39,40)          0.1979         estimate D2E/DX2                !
 ! D140  D(35,37,39,44)       -179.7558         estimate D2E/DX2                !
 ! D141  D(42,37,39,40)        179.7923         estimate D2E/DX2                !
 ! D142  D(42,37,39,44)         -0.1614         estimate D2E/DX2                !
 ! D143  D(36,38,40,39)         -0.1462         estimate D2E/DX2                !
 ! D144  D(36,38,40,45)        179.801          estimate D2E/DX2                !
 ! D145  D(43,38,40,39)       -179.9689         estimate D2E/DX2                !
 ! D146  D(43,38,40,45)         -0.0218         estimate D2E/DX2                !
 ! D147  D(37,39,40,38)          0.1224         estimate D2E/DX2                !
 ! D148  D(37,39,40,45)       -179.8248         estimate D2E/DX2                !
 ! D149  D(44,39,40,38)       -179.924          estimate D2E/DX2                !
 ! D150  D(44,39,40,45)          0.1288         estimate D2E/DX2                !
 --------------------------------------------------------------------------------
 Trust Radius=3.00D-01 FncErr=1.00D-07 GrdErr=1.00D-06 EigMax=2.50D+02 EigMin=1.00D-04
 Number of steps in this run=    270 maximum allowed number of steps=    270.
 GradGradGradGradGradGradGradGradGradGradGradGradGradGradGradGradGradGrad

 Leave Link  103 at Fri Mar 12 17:02:17 2021, MaxMem=  2684354560 cpu:               0.3 elap:               0.0
 (Enter /opt/g16avx/l202.exe)
                          Input orientation:                          
 ---------------------------------------------------------------------
 Center     Atomic      Atomic             Coordinates (Angstroms)
 Number     Number       Type             X           Y           Z
 ---------------------------------------------------------------------
      1          7           0        3.173177    0.586058   -0.698637
      2          6           0        2.208187    1.647344   -0.468774
      3          6           0        2.567199   -0.464386   -1.500630
      4          1           0        2.706810    2.442861    0.093404
      5          1           0        1.902917    2.053877   -1.437860
      6          6           0        0.980835    1.137289    0.313202
      7          1           0        3.327269   -1.227161   -1.692563
      8          1           0        2.263187   -0.035201   -2.460233
      9          6           0        1.359909   -1.088362   -0.779015
     10          6           0        1.516374    0.517727    1.617176
     11          6           0        0.314977    0.032030   -0.544305
     12          6           0        1.863449   -1.596783    0.582685
     13          1           0        2.003124    1.289043    2.222074
     14          1           0        0.707194    0.086295    2.214635
     15          7           0        2.489327   -0.527075    1.346080
     16          1           0        0.065471    0.463388   -1.524438
     17          1           0        2.606889   -2.385843    0.436737
     18          1           0        1.037058   -2.009142    1.166016
     19          7           0       -0.906406   -0.538276   -0.012643
     20          1           0       -0.901517   -0.573993    0.998672
     21          6           0        0.028648    2.290553    0.612415
     22          1           0       -0.790817    1.964076    1.249521
     23          1           0        0.558096    3.088455    1.130660
     24          1           0       -0.383762    2.695356   -0.310245
     25          6           0        0.758689   -2.223382   -1.598164
     26          1           0       -0.118363   -2.614578   -1.089938
     27          1           0        0.461634   -1.863453   -2.581291
     28          1           0        1.483373   -3.024467   -1.726927
     29          6           0        3.590998    0.031030    0.579427
     30          1           0        4.062895    0.823027    1.167616
     31          1           0        4.325469   -0.757422    0.395165
     32          6           0       -2.171656   -0.022396   -0.500895
     33          1           0       -2.446791    0.957679   -0.076169
     34          1           0       -2.085614    0.092346   -1.585395
     35          6           0       -3.249428   -1.027437   -0.188641
     36          6           0       -3.364676   -2.180448   -0.954834
     37          6           0       -4.109772   -0.845801    0.884767
     38          6           0       -4.327056   -3.128162   -0.659673
     39          6           0       -5.074708   -1.793062    1.182198
     40          6           0       -5.186021   -2.935575    0.409672
     41          1           0       -2.693658   -2.328971   -1.787836
     42          1           0       -4.029808    0.046850    1.490213
     43          1           0       -4.410449   -4.018424   -1.266056
     44          1           0       -5.741198   -1.638042    2.018345
     45          1           0       -5.940379   -3.673763    0.639280
 ---------------------------------------------------------------------
                    Distance matrix (angstroms):
                    1          2          3          4          5
     1  N    0.000000
     2  C    1.452712   0.000000
     3  C    1.453903   2.377609   0.000000
     4  H    2.071847   1.094311   3.318512   0.000000
     5  H    2.077138   1.094343   2.605160   1.772660   0.000000
     6  C    2.476699   1.542088   2.893423   2.175275   2.180961
     7  H    2.073498   3.318552   1.093787   4.128403   3.585926
     8  H    2.077803   2.607661   1.094286   3.585897   2.353569
     9  C    2.469430   2.880957   1.538708   3.878762   3.256163
    10  C    2.848273   2.470997   3.433583   2.728582   3.441282
    11  C    2.915489   2.489817   2.496696   3.455380   2.721739
    12  C    2.849906   3.427648   2.473416   4.155644   4.172706
    13  H    3.223937   2.722333   4.153459   2.521450   3.740339
    14  H    3.849414   3.448266   4.191188   3.748532   4.317622
    15  N    2.426435   2.846196   2.848465   3.230638   3.841291
    16  H    3.217893   2.665973   2.668328   3.675922   2.431740
    17  H    3.231401   4.152772   2.728912   4.841926   4.870401
    18  H    3.843826   4.173005   3.440727   4.874310   4.902857
    19  N    4.286923   3.832190   3.779616   4.685483   4.079559
    20  H    4.563958   4.093653   4.276741   4.789670   4.550521
    21  C    3.809492   2.516561   4.301034   2.732238   2.787926
    22  H    4.626825   3.470862   4.973634   3.714733   3.806086
    23  H    4.055487   2.712525   4.856219   2.471773   3.078343
    24  H    4.153529   2.800296   4.484324   3.127031   2.629052
    25  C    3.812067   4.284751   2.524735   5.332017   4.430565
    26  H    4.607757   4.895167   3.464713   5.912664   5.099127
    27  H    4.110590   4.454085   2.749295   5.544290   4.327841
    28  H    4.116881   4.892252   2.789248   5.890848   5.103838
    29  C    1.454675   2.371364   2.370704   2.614371   3.318279
    30  H    2.081023   2.607147   3.318746   2.369971   3.601251
    31  H    2.080653   3.318460   2.602195   3.599018   4.139099
    32  C    5.382988   4.687440   4.863289   5.498192   4.668079
    33  H    5.666534   4.722139   5.402912   5.366016   4.687837
    34  H    5.355836   4.701233   4.686769   5.595589   4.447219
    35  C    6.641786   6.084282   5.989281   6.899224   6.132023
    36  C    7.103711   6.778277   6.199186   7.703034   6.775719
    37  C    7.589383   6.925637   7.100531   7.609687   7.067897
    38  C    8.369614   8.096376   7.438660   9.004371   8.140742
    39  C    8.787796   8.222084   8.207417   8.926396   8.387544
    40  C    9.138186   8.743519   8.358735   9.556379   8.863467
    41  H    6.641047   6.448186   5.588899   7.448121   6.360845
    42  H    7.547503   6.731403   7.261336   7.285188   6.913682
    43  H    8.890141   8.748882   7.834143   9.708333   8.761333
    44  H    9.580955   8.953896   9.098908   9.577474   9.165595
    45  H   10.148547   9.794952   9.341210  10.605892   9.931650
                    6          7          8          9         10
     6  C    0.000000
     7  H    3.888376   0.000000
     8  H    3.272782   1.772669   0.000000
     9  C    2.508018   2.173555   2.179806   0.000000
    10  C    1.539808   4.156723   4.181952   2.888898   0.000000
    11  C    1.549285   3.460919   2.733281   1.549919   2.520170
    12  C    2.885615   2.730594   3.443498   1.538269   2.379450
    13  H    2.170690   4.838288   4.872911   3.882308   1.094420
    14  H    2.189729   4.884276   4.928516   3.281432   1.094469
    15  N    2.472345   3.228873   3.844620   2.471166   1.453183
    16  H    2.160776   3.677709   2.440136   2.153869   3.460897
    17  H    3.882237   2.528915   3.746476   2.171744   3.318641
    18  H    3.260441   3.745402   4.306915   2.176055   2.611198
    19  N    2.544675   4.606592   4.036100   2.454812   3.105047
    20  H    2.634692   5.054899   4.719076   2.922122   2.724077
    21  C    1.525191   5.344917   4.454601   3.889139   2.523052
    22  H    2.167723   5.983184   5.204453   4.249466   2.747768
    23  H    2.157312   5.853499   5.055599   4.662141   2.786331
    24  H    2.162958   5.573930   4.368608   4.192452   3.473837
    25  C    3.872567   2.756622   2.791920   1.523398   4.292572
    26  H    4.153738   3.763039   3.768644   2.147393   4.451086
    27  H    4.201441   3.067013   2.569583   2.157744   4.940609
    28  H    4.662069   2.575159   3.175148   2.159233   4.871474
    29  C    2.847391   2.610467   3.317681   2.841859   2.370203
    30  H    3.213702   3.595142   4.139661   3.840432   2.603859
    31  H    3.844895   2.361285   3.595540   3.206675   3.318181
    32  C    3.456273   5.754104   4.848403   3.699404   4.287135
    33  H    3.454344   6.381694   5.371543   4.378497   4.332165
    34  H    3.754955   5.572421   4.437756   3.730408   4.838567
    35  C    4.778390   6.749415   6.044302   4.647390   5.325540
    36  C    5.612375   6.799641   6.208152   4.852346   6.141664
    37  C    5.493051   7.880206   7.242977   5.722274   5.835165
    38  C    6.878536   7.954204   7.499316   6.042896   7.254118
    39  C    6.783193   8.898186   8.378669   6.763672   6.997951
    40  C    7.391051   8.933878   8.493482   6.904663   7.635801
    41  H    5.470943   6.121652   5.503074   4.357550   6.117366
    42  H    5.261269   8.116634   7.430649   5.957109   5.567583
    43  H    7.625049   8.236828   7.863177   6.489954   8.001058
    44  H    7.469652   9.806975   9.311120   7.651999   7.581599
    45  H    8.435386   9.864717   9.494452   7.873377   8.609764
                   11         12         13         14         15
    11  C    0.000000
    12  C    2.514141   0.000000
    13  H    3.476029   3.321911   0.000000
    14  H    2.787208   2.613988   1.768076   0.000000
    15  N    2.934953   1.455599   2.074137   2.075236   0.000000
    16  H    1.099538   3.452100   4.297971   3.812437   3.885353
    17  H    3.472954   1.093901   4.129982   3.589042   2.072618
    18  H    2.759163   1.092354   3.595353   2.366277   2.082794
    19  N    1.449030   3.024392   4.098587   2.820383   3.657493
    20  H    2.056185   2.977278   3.661223   2.121909   3.408917
    21  C    2.553608   4.298693   2.737258   2.808254   3.812117
    22  H    2.858915   4.491048   3.034409   2.588735   4.120012
    23  H    3.493759   4.894454   2.552876   3.195340   4.104646
    24  H    2.763391   4.926433   3.753343   3.791096   4.624080
    25  C    2.528712   2.523732   5.336663   4.458105   3.813285
    26  H    2.736792   2.785885   5.541515   4.347006   4.134235
    27  H    2.786337   3.470870   5.948675   5.182926   4.617541
    28  H    3.479356   2.741724   5.871212   5.080867   4.085620
    29  C    3.463393   2.373649   2.608109   3.315612   1.453588
    30  H    4.195622   3.321925   2.360447   3.591622   2.081044
    31  H    4.194029   2.607917   3.594288   4.136936   2.080557
    32  C    2.487607   4.464853   5.153952   3.959002   5.038927
    33  H    2.950142   5.053467   5.019310   3.994336   5.347200
    34  H    2.617316   4.811323   5.713728   4.715936   5.468758
    35  C    3.735498   5.201981   6.226309   4.761407   5.961463
    36  C    4.313170   5.480686   7.137463   5.635937   6.503629
    37  C    4.731938   6.027819   6.611614   5.083357   6.622877
    38  C    5.616813   6.496994   8.239378   6.628579   7.566490
    39  C    5.946467   6.966776   7.789507   6.166709   7.670997
    40  C    6.322794   7.177557   8.533229   6.864370   8.098685
    41  H    4.021515   5.188709   7.157456   5.780924   6.319145
    42  H    4.797566   6.185112   6.202816   4.792237   6.545936
    43  H    6.265521   6.974524   9.026083   7.426587   8.162088
    44  H    6.784804   7.739088   8.281537   6.677847   8.332330
    45  H    7.366359   8.075691   9.499153   7.798077   9.025583
                   16         17         18         19         20
    16  H    0.000000
    17  H    4.292217   0.000000
    18  H    3.780996   1.771474   0.000000
    19  N    2.057522   3.994832   2.707348   0.000000
    20  H    2.894358   3.988419   2.417795   1.011957   0.000000
    21  C    2.811766   5.342927   4.450926   3.044224   3.036449
    22  H    3.268049   5.579142   4.374307   2.805029   2.552836
    23  H    3.766059   5.886172   5.120171   4.074934   3.944796
    24  H    2.580263   5.943110   5.131314   3.289088   3.559491
    25  C    2.775738   2.753735   2.786410   2.850614   3.495759
    26  H    3.113914   3.132100   2.605931   2.468320   3.023179
    27  H    2.586131   3.739452   3.794028   3.197745   4.041908
    28  H    3.770489   2.520232   3.098258   3.851098   4.372804
    29  C    4.128259   2.613448   3.320994   4.571794   4.552419
    30  H    4.832794   3.598748   4.144499   5.285840   5.160000
    31  H    4.829372   2.367910   3.602035   5.252318   5.264907
    32  C    2.507661   5.412904   4.125724   1.450993   2.041130
    33  H    2.941643   6.081274   4.741545   2.148186   2.426762
    34  H    2.183702   5.678910   4.662359   2.064405   2.919503
    35  C    3.872398   6.044238   4.601391   2.400002   2.669833
    36  C    4.368092   6.135001   4.889030   3.102828   3.530444
    37  C    4.995087   6.905505   5.284158   3.340879   3.221762
    38  C    5.739455   7.059231   5.775731   4.339010   4.583471
    39  C    6.232085   7.740415   6.115606   4.514075   4.351475
    40  C    6.547663   7.812322   6.336959   4.923464   4.927572
    41  H    3.934393   5.748718   4.769253   3.090659   3.749180
    42  H    5.102248   7.146576   5.477713   3.515194   3.226959
    43  H    6.339343   7.403233   6.295040   5.095174   5.413474
    44  H    7.119321   8.529434   6.841706   5.358136   5.059096
    45  H    7.607097   8.646129   7.192568   5.966336   5.926876
                   21         22         23         24         25
    21  C    0.000000
    22  H    1.088125   0.000000
    23  H    1.088825   1.760092   0.000000
    24  H    1.088692   1.770123   1.765738   0.000000
    25  C    5.078901   5.295762   5.975143   5.211326   0.000000
    26  H    5.194221   5.185493   6.157373   5.373431   1.086531
    27  H    5.257661   5.558213   6.189449   5.162856   1.088269
    28  H    5.986501   6.238330   6.811003   6.181389   1.087880
    29  C    4.218634   4.835908   4.341682   4.867122   4.224483
    30  H    4.328630   4.986705   4.173386   5.046034   5.277113
    31  H    5.272573   5.857718   5.433675   5.881848   4.341004
    32  C    3.380907   2.986092   4.448698   3.258694   3.825607
    33  H    2.894564   2.347880   3.876337   2.707472   4.765577
    34  H    3.759334   3.635468   4.831442   3.361245   3.667809
    35  C    4.732498   4.130645   5.760066   4.699576   4.413847
    36  C    5.827587   5.353598   6.891934   5.751070   4.173471
    37  C    5.199751   4.363933   6.109650   5.277404   5.636009
    38  C    7.067732   6.486979   8.106561   7.041664   5.250162
    39  C    6.560854   5.698450   7.453881   6.661701   6.476428
    40  C    7.385546   6.635491   8.354857   7.435547   6.314919
    41  H    5.874706   5.592549   6.959887   5.723877   3.459166
    42  H    4.719725   3.771571   5.516294   4.852823   6.133656
    43  H    7.939612   7.431028   8.996578   7.886864   5.482013
    44  H    7.120507   6.170301   7.925205   7.273431   7.461253
    45  H    8.438191   7.660000   9.391444   8.505484   7.210220
                   26         27         28         29         30
    26  H    0.000000
    27  H    1.767687   0.000000
    28  H    1.771813   1.766873   0.000000
    29  C    4.852358   4.834473   4.370060   0.000000
    30  H    5.864861   5.851543   5.462191   1.093577   0.000000
    31  H    5.040059   5.001181   4.209546   1.093186   1.778607
    32  C    3.358928   3.827761   4.886188   5.863287   6.509094
    33  H    4.382958   4.763754   5.833411   6.143565   6.628812
    34  H    3.382749   3.362355   4.740488   6.075701   6.776218
    35  C    3.624213   4.493960   5.362262   6.964317   7.663793
    36  C    3.277998   4.169711   4.981172   7.458284   8.288213
    37  C    4.791595   5.826399   6.546053   7.756541   8.346106
    38  C    4.261689   5.312594   5.908542   8.614607   9.452098
    39  C    5.513877   6.694765   7.279272   8.876098   9.504732
    40  C    5.294622   6.480070   7.003840   9.266371  10.012193
    41  H    2.683427   3.286662   4.234975   7.118318   8.020026
    42  H    5.388857   6.356056   7.083653   7.675055   8.136238
    43  H    4.519271   5.487343   5.994789   9.155711  10.057832
    44  H    6.498563   7.725451   8.254918   9.588857  10.144006
    45  H    6.165058   7.391554   7.818735  10.226252  10.980243
                   31         32         33         34         35
    31  H    0.000000
    32  C    6.599683   0.000000
    33  H    7.001945   1.103012   0.000000
    34  H    6.763631   1.093943   1.776799   0.000000
    35  C    7.602157   1.506387   2.144192   2.135252   0.000000
    36  C    7.936361   2.507299   3.385617   2.683132   1.389160
    37  C    8.449900   2.520783   2.634662   3.328519   1.387584
    38  C    9.033232   3.783747   4.535412   4.031463   2.407529
    39  C    9.489747   3.794176   4.006995   4.488766   2.407702
    40  C    9.757714   4.289771   4.785065   4.770862   2.783767
    41  H    7.516875   2.692396   3.713868   2.504691   2.135485
    42  H    8.465024   2.724341   2.406056   3.638864   2.140476
    43  H    9.471539   4.643911   5.480272   4.733420   3.384493
    44  H   10.234646   4.658166   4.688057   5.417055   3.384161
    45  H   10.674842   5.369893   5.845278   5.830263   3.863898
                   36         37         38         39         40
    36  C    0.000000
    37  C    2.391774   0.000000
    38  C    1.382555   2.764359   0.000000
    39  C    2.764269   1.384511   2.394570   0.000000
    40  C    2.397789   2.398163   1.385066   1.383663   0.000000
    41  H    1.079915   3.368676   2.139964   3.844177   3.377703
    42  H    3.373649   1.081565   3.845915   2.138215   3.376278
    43  H    2.137442   3.844735   1.080380   3.374526   2.140592
    44  H    3.844718   2.138737   3.375209   1.080455   2.140010
    45  H    3.377193   3.377685   2.141908   2.140369   1.080138
                   41         42         43         44         45
    41  H    0.000000
    42  H    4.263265   0.000000
    43  H    2.464524   4.926292   0.000000
    44  H    4.924621   2.458992   4.269004   0.000000
    45  H    4.270896   4.268176   2.467748   2.466911   0.000000
 Stoichiometry    C17H25N3
 Framework group  C1[X(C17H25N3)]
 Deg. of freedom   129
 Full point group                 C1      NOp   1
 Largest Abelian subgroup         C1      NOp   1
 Largest concise Abelian subgroup C1      NOp   1
                         Standard orientation:                         
 ---------------------------------------------------------------------
 Center     Atomic      Atomic             Coordinates (Angstroms)
 Number     Number       Type             X           Y           Z
 ---------------------------------------------------------------------
      1          7           0        3.656771   -0.320626   -0.521831
      2          6           0        3.084377    0.943221   -0.952445
      3          6           0        2.756290   -1.409941   -0.862946
      4          1           0        3.804630    1.735705   -0.727229
      5          1           0        2.943507    0.908063   -2.037114
      6          6           0        1.745185    1.229326   -0.243401
      7          1           0        3.231029   -2.349469   -0.565829
      8          1           0        2.623796   -1.422030   -1.949114
      9          6           0        1.400132   -1.253200   -0.153092
     10          6           0        2.029232    1.181342    1.269220
     11          6           0        0.771212    0.084545   -0.619081
     12          6           0        1.688996   -1.172071    1.355632
     13          1           0        2.729700    1.977174    1.540793
     14          1           0        1.114106    1.329331    1.851033
     15          7           0        2.615185   -0.090505    1.657556
     16          1           0        0.691316    0.049379   -1.715148
     17          1           0        2.138722   -2.107121    1.702110
     18          1           0        0.764009   -1.010065    1.913657
     19          7           0       -0.577727    0.199943   -0.102616
     20          1           0       -0.601426    0.648400    0.804237
     21          6           0        1.213577    2.599335   -0.651664
     22          1           0        0.322098    2.856657   -0.083275
     23          1           0        1.964484    3.364403   -0.461010
     24          1           0        0.970040    2.614542   -1.712657
     25          6           0        0.477011   -2.422623   -0.470960
     26          1           0       -0.487787   -2.264472    0.003069
     27          1           0        0.329030   -2.505652   -1.545918
     28          1           0        0.904814   -3.354351   -0.107160
     29          6           0        3.850832   -0.294260    0.919600
     30          1           0        4.544234    0.515052    1.164795
     31          1           0        4.292906   -1.244480    1.230579
     32          6           0       -1.599077    0.751110   -0.973502
     33          1           0       -1.548546    1.847717   -1.080908
     34          1           0       -1.462538    0.308669   -1.964619
     35          6           0       -2.949516    0.359377   -0.433077
     36          6           0       -3.419703   -0.935087   -0.614888
     37          6           0       -3.722125    1.259428    0.286905
     38          6           0       -4.642131   -1.319127   -0.095620
     39          6           0       -4.946861    0.877553    0.807542
     40          6           0       -5.409817   -0.412240    0.616155
     41          1           0       -2.819407   -1.640813   -1.169696
     42          1           0       -3.367072    2.269982    0.436906
     43          1           0       -4.999638   -2.327178   -0.248081
     44          1           0       -5.540821    1.588938    1.362992
     45          1           0       -6.366468   -0.710195    1.019564
 ---------------------------------------------------------------------
 Rotational constants (GHZ):           0.8079126           0.1935513           0.1783877
 Leave Link  202 at Fri Mar 12 17:02:17 2021, MaxMem=  2684354560 cpu:               0.2 elap:               0.0
 (Enter /opt/g16avx/l301.exe)
 Standard basis: def2SVP (5D, 7F)
 Ernie: Thresh=  0.10000D-02 Tol=  0.10000D-05 Strict=F.
 There are   425 symmetry adapted cartesian basis functions of A   symmetry.
 There are   405 symmetry adapted basis functions of A   symmetry.
   405 basis functions,   675 primitive gaussians,   425 cartesian basis functions
    74 alpha electrons       74 beta electrons
       nuclear repulsion energy      1668.9784120868 Hartrees.
 IExCor= 1009 DFT=T Ex+Corr=PBE1PBE ExCW=0 ScaHFX=  0.250000
 ScaDFX=  0.750000  0.750000  1.000000  1.000000 ScalE2=  1.000000  1.000000
 IRadAn=      5 IRanWt=     -1 IRanGd=            0 ICorTp=0 IEmpDi=141
 NAtoms=   45 NActive=   45 NUniq=   45 SFac= 1.00D+00 NAtFMM=   60 NAOKFM=F Big=F
 Integral buffers will be    131072 words long.
 Raffenetti 2 integral format.
 Two-electron integral symmetry is turned on.
 R6Disp:  Grimme-D3(BJ) Dispersion energy=       -0.0549436324 Hartrees.
 Nuclear repulsion after empirical dispersion term =     1668.9234684544 Hartrees.
 ------------------------------------------------------------------------------
 Polarizable Continuum Model (PCM)
 =================================
 Model                : PCM.
 Atomic radii         : SMD-Coulomb.
 Polarization charges : Total charges.
 Charge compensation  : None.
 Solution method      : On-the-fly selection.
 Cavity type          : VdW (van der Waals Surface) (Alpha=1.000).
 Cavity algorithm     : GePol (No added spheres)
                        Default sphere list used, NSphG=   45.
                        Lebedev-Laikov grids with approx.  5.0 points / Ang**2.
                        Smoothing algorithm: York/Karplus (Gamma=1.0000).
                        Polarization charges: spherical gaussians, with
                                              point-specific exponents (IZeta= 3).
                        Self-potential: point-specific (ISelfS= 7).
                        Self-field    : sphere-specific E.n sum rule (ISelfD= 2).
 1st derivatives      : Analytical E(r).r(x)/FMM algorithm (CHGder, D1EAlg=3).
                        Cavity 1st derivative terms included.
 Solvent              : Benzene, Eps=   2.270600 Eps(inf)=   2.253301
 ------------------------------------------------------------------------------
 GePol: Number of generator spheres                  =      45
 GePol: Total number of spheres                      =      45
 GePol: Number of exposed spheres                    =      45 (100.00%)
 GePol: Number of points                             =    2852
 GePol: Average weight of points                     =       0.11
 GePol: Minimum weight of points                     =   0.44D-10
 GePol: Maximum weight of points                     =    0.17992
 GePol: Number of points with low weight             =     192
 GePol: Fraction of low-weight points (<1% of avg)   =       6.73%
 GePol: Cavity surface area                          =    306.136 Ang**2
 GePol: Cavity volume                                =    292.630 Ang**3
 ------------------------------------------------------------------------------
 Atomic radii for non-electrostatic terms: SMD-CDS.
 ------------------------------------------------------------------------------
 PCM non-electrostatic energy =        -0.0119802209 Hartrees.
 Nuclear repulsion after PCM non-electrostatic terms =     1668.9114882335 Hartrees.
 Leave Link  301 at Fri Mar 12 17:02:17 2021, MaxMem=  2684354560 cpu:               2.5 elap:               0.1
 (Enter /opt/g16avx/l302.exe)
 NPDir=0 NMtPBC=     1 NCelOv=     1 NCel=       1 NClECP=     1 NCelD=      1
         NCelK=      1 NCelE2=     1 NClLst=     1 CellRange=     0.0.
 One-electron integrals computed using PRISM.
 One-electron integral symmetry used in STVInt
   1 Symmetry operations used in ECPInt.
 ECPInt:  NShTT=   19110 NPrTT=   67130 LenC2=   17666 LenP2D=   44977.
 LDataN:  DoStor=T MaxTD1= 4 Len=   56
 NBasis=   405 RedAO= T EigKep=  2.68D-04  NBF=   405
 NBsUse=   405 1.00D-06 EigRej= -1.00D+00 NBFU=   405
 Precomputing XC quadrature grid using
 IXCGrd= 4 IRadAn=           5 IRanWt=          -1 IRanGd=           0 AccXCQ= 0.00D+00.
 Generated NRdTot=       0 NPtTot=           0 NUsed=           0 NTot=          32
 NSgBfM=   424   424   424   424   424 MxSgAt=    45 MxSgA2=    45.
 Leave Link  302 at Fri Mar 12 17:02:18 2021, MaxMem=  2684354560 cpu:              15.8 elap:               0.8
 (Enter /opt/g16avx/l303.exe)
 DipDrv:  MaxL=1.
 Leave Link  303 at Fri Mar 12 17:02:18 2021, MaxMem=  2684354560 cpu:               1.6 elap:               0.1
 (Enter /opt/g16avx/l401.exe)
 ExpMin= 1.22D-01 ExpMax= 1.71D+03 ExpMxC= 2.58D+02 IAcc=3 IRadAn=         5 AccDes= 0.00D+00
 Harris functional with IExCor= 1009 and IRadAn=       5 diagonalized for initial guess.
 HarFok:  IExCor= 1009 AccDes= 0.00D+00 IRadAn=         5 IDoV= 1 UseB2=F ITyADJ=14
 ICtDFT=  3500011 ScaDFX=  1.000000  1.000000  1.000000  1.000000
 FoFCou: FMM=F IPFlag=           0 FMFlag=      100000 FMFlg1=           0
         NFxFlg=           0 DoJE=T BraDBF=F KetDBF=T FulRan=T
         wScrn=  0.000000 ICntrl=       500 IOpCl=  0 I1Cent=   200000004 NGrid=           0
         NMat0=    1 NMatS0=      1 NMatT0=    0 NMatD0=    1 NMtDS0=    0 NMtDT0=    0
 Petite list used in FoFCou.
 Harris En= -825.816209470074    
 JPrj=0 DoOrth=F DoCkMO=F.
 Leave Link  401 at Fri Mar 12 17:02:20 2021, MaxMem=  2684354560 cpu:              54.6 elap:               2.8
 (Enter /opt/g16avx/l502.exe)
 Integral symmetry usage will be decided dynamically.
 Closed shell SCF:
 Using DIIS extrapolation, IDIIS=  1040.
 NGot=  2684354560 LenX=  2683980093 LenY=  2683799027
 Requested convergence on RMS density matrix=1.00D-08 within 128 cycles.
 Requested convergence on MAX density matrix=1.00D-06.
 Requested convergence on             energy=1.00D-06.
 No special actions if energy rises.
 Fock matrices will be formed incrementally for  20 cycles.

 Cycle   1  Pass 1  IDiag  1:
 FoFJK:  IHMeth= 1 ICntrl=       0 DoSepK=F KAlg= 0 I1Cent=           0 FoldK=F
 IRaf= 870000000 NMat=       1 IRICut=       1 DoRegI=T DoRafI=F ISym2E= 0 IDoP0=0 IntGTp=1.
 FoFCou: FMM=F IPFlag=           0 FMFlag=      100000 FMFlg1=           0
         NFxFlg=           0 DoJE=F BraDBF=F KetDBF=F FulRan=T
         wScrn=  0.000000 ICntrl=         0 IOpCl=  0 I1Cent=           0 NGrid=           0
         NMat0=    1 NMatS0=      1 NMatT0=    0 NMatD0=    1 NMtDS0=    0 NMtDT0=    0
 Symmetry not used in FoFCou.
 Inv3:  Mode=1 IEnd=    24401712.
 Iteration    1 A*A^-1 deviation from unit magnitude is 3.77D-15 for    255.
 Iteration    1 A*A^-1 deviation from orthogonality  is 3.28D-15 for   1474    418.
 Iteration    1 A^-1*A deviation from unit magnitude is 4.00D-15 for    255.
 Iteration    1 A^-1*A deviation from orthogonality  is 3.44D-13 for   1412   1341.
 E= -825.224357813506    
 DIIS: error= 3.75D-02 at cycle   1 NSaved=   1.
 NSaved= 1 IEnMin= 1 EnMin= -825.224357813506     IErMin= 1 ErrMin= 3.75D-02
 ErrMax= 3.75D-02  0.00D+00 EMaxC= 1.00D-01 BMatC= 3.49D-01 BMatP= 3.49D-01
 IDIUse=3 WtCom= 6.25D-01 WtEn= 3.75D-01
 Coeff-Com:  0.100D+01
 Coeff-En:   0.100D+01
 Coeff:      0.100D+01
 Gap=     0.212 Goal=   None    Shift=    0.000
 GapD=    0.212 DampG=1.000 DampE=0.500 DampFc=0.5000 IDamp=-1.
 Damping current iteration by 5.00D-01
 RMSDP=4.22D-03 MaxDP=1.48D-01              OVMax= 1.33D-01

 Cycle   2  Pass 1  IDiag  1:
 RMSU=  2.04D-03    CP:  9.68D-01
 E= -825.418780530860     Delta-E=       -0.194422717354 Rises=F Damp=T
 DIIS: error= 5.01D-03 at cycle   2 NSaved=   2.
 NSaved= 2 IEnMin= 2 EnMin= -825.418780530860     IErMin= 2 ErrMin= 5.01D-03
 ErrMax= 5.01D-03  0.00D+00 EMaxC= 1.00D-01 BMatC= 1.88D-02 BMatP= 3.49D-01
 IDIUse=3 WtCom= 9.50D-01 WtEn= 5.01D-02
 Coeff-Com: -0.134D-01 0.101D+01
 Coeff-En:   0.000D+00 0.100D+01
 Coeff:     -0.127D-01 0.101D+01
 Gap=     0.224 Goal=   None    Shift=    0.000
 RMSDP=1.33D-03 MaxDP=5.07D-02 DE=-1.94D-01 OVMax= 7.60D-02

 Cycle   3  Pass 1  IDiag  1:
 RMSU=  1.31D-03    CP:  9.57D-01  1.06D+00
 E= -825.618009450076     Delta-E=       -0.199228919216 Rises=F Damp=F
 DIIS: error= 3.07D-03 at cycle   3 NSaved=   3.
 NSaved= 3 IEnMin= 3 EnMin= -825.618009450076     IErMin= 3 ErrMin= 3.07D-03
 ErrMax= 3.07D-03  0.00D+00 EMaxC= 1.00D-01 BMatC= 6.86D-03 BMatP= 1.88D-02
 IDIUse=3 WtCom= 9.69D-01 WtEn= 3.07D-02
 Coeff-Com: -0.426D-01 0.369D+00 0.674D+00
 Coeff-En:   0.000D+00 0.000D+00 0.100D+01
 Coeff:     -0.413D-01 0.357D+00 0.684D+00
 Gap=     0.193 Goal=   None    Shift=    0.000
 RMSDP=4.99D-04 MaxDP=3.16D-02 DE=-1.99D-01 OVMax= 1.56D-02

 Cycle   4  Pass 1  IDiag  1:
 RMSU=  3.46D-04    CP:  9.55D-01  1.12D+00  7.43D-01
 E= -825.622765471146     Delta-E=       -0.004756021071 Rises=F Damp=F
 DIIS: error= 1.22D-03 at cycle   4 NSaved=   4.
 NSaved= 4 IEnMin= 4 EnMin= -825.622765471146     IErMin= 4 ErrMin= 1.22D-03
 ErrMax= 1.22D-03  0.00D+00 EMaxC= 1.00D-01 BMatC= 1.55D-03 BMatP= 6.86D-03
 IDIUse=3 WtCom= 9.88D-01 WtEn= 1.22D-02
 Coeff-Com: -0.197D-01 0.876D-01 0.350D+00 0.582D+00
 Coeff-En:   0.000D+00 0.000D+00 0.160D+00 0.840D+00
 Coeff:     -0.194D-01 0.866D-01 0.348D+00 0.585D+00
 Gap=     0.199 Goal=   None    Shift=    0.000
 RMSDP=1.57D-04 MaxDP=7.87D-03 DE=-4.76D-03 OVMax= 6.35D-03

 Cycle   5  Pass 1  IDiag  1:
 RMSU=  7.73D-05    CP:  9.55D-01  1.11D+00  8.10D-01  7.14D-01
 E= -825.624159986027     Delta-E=       -0.001394514881 Rises=F Damp=F
 DIIS: error= 2.27D-04 at cycle   5 NSaved=   5.
 NSaved= 5 IEnMin= 5 EnMin= -825.624159986027     IErMin= 5 ErrMin= 2.27D-04
 ErrMax= 2.27D-04  0.00D+00 EMaxC= 1.00D-01 BMatC= 5.43D-05 BMatP= 1.55D-03
 IDIUse=3 WtCom= 9.98D-01 WtEn= 2.27D-03
 Coeff-Com: -0.450D-02 0.825D-02 0.819D-01 0.230D+00 0.684D+00
 Coeff-En:   0.000D+00 0.000D+00 0.000D+00 0.000D+00 0.100D+01
 Coeff:     -0.449D-02 0.823D-02 0.817D-01 0.230D+00 0.685D+00
 Gap=     0.199 Goal=   None    Shift=    0.000
 RMSDP=2.57D-05 MaxDP=1.37D-03 DE=-1.39D-03 OVMax= 1.17D-03

 Cycle   6  Pass 1  IDiag  1:
 RMSU=  1.24D-05    CP:  9.55D-01  1.11D+00  8.10D-01  7.31D-01  7.36D-01
 E= -825.624210264231     Delta-E=       -0.000050278205 Rises=F Damp=F
 DIIS: error= 5.76D-05 at cycle   6 NSaved=   6.
 NSaved= 6 IEnMin= 6 EnMin= -825.624210264231     IErMin= 6 ErrMin= 5.76D-05
 ErrMax= 5.76D-05  0.00D+00 EMaxC= 1.00D-01 BMatC= 2.42D-06 BMatP= 5.43D-05
 IDIUse=1 WtCom= 1.00D+00 WtEn= 0.00D+00
 Coeff-Com: -0.171D-02 0.196D-02 0.310D-01 0.958D-01 0.324D+00 0.549D+00
 Coeff:     -0.171D-02 0.196D-02 0.310D-01 0.958D-01 0.324D+00 0.549D+00
 Gap=     0.198 Goal=   None    Shift=    0.000
 RMSDP=5.25D-06 MaxDP=3.09D-04 DE=-5.03D-05 OVMax= 6.02D-04

 Cycle   7  Pass 1  IDiag  1:
 RMSU=  3.90D-06    CP:  9.55D-01  1.11D+00  8.11D-01  7.31D-01  7.44D-01
                    CP:  7.30D-01
 E= -825.624212482335     Delta-E=       -0.000002218104 Rises=F Damp=F
 DIIS: error= 2.29D-05 at cycle   7 NSaved=   7.
 NSaved= 7 IEnMin= 7 EnMin= -825.624212482335     IErMin= 7 ErrMin= 2.29D-05
 ErrMax= 2.29D-05  0.00D+00 EMaxC= 1.00D-01 BMatC= 1.94D-07 BMatP= 2.42D-06
 IDIUse=1 WtCom= 1.00D+00 WtEn= 0.00D+00
 Coeff-Com: -0.352D-03 0.129D-03 0.624D-02 0.217D-01 0.835D-01 0.257D+00
 Coeff-Com:  0.632D+00
 Coeff:     -0.352D-03 0.129D-03 0.624D-02 0.217D-01 0.835D-01 0.257D+00
 Coeff:      0.632D+00
 Gap=     0.199 Goal=   None    Shift=    0.000
 RMSDP=1.75D-06 MaxDP=7.45D-05 DE=-2.22D-06 OVMax= 2.36D-04

 Cycle   8  Pass 1  IDiag  1:
 RMSU=  1.21D-06    CP:  9.55D-01  1.11D+00  8.11D-01  7.33D-01  7.46D-01
                    CP:  7.63D-01  7.36D-01
 E= -825.624212668128     Delta-E=       -0.000000185793 Rises=F Damp=F
 DIIS: error= 7.26D-06 at cycle   8 NSaved=   8.
 NSaved= 8 IEnMin= 8 EnMin= -825.624212668128     IErMin= 8 ErrMin= 7.26D-06
 ErrMax= 7.26D-06  0.00D+00 EMaxC= 1.00D-01 BMatC= 2.49D-08 BMatP= 1.94D-07
 IDIUse=1 WtCom= 1.00D+00 WtEn= 0.00D+00
 Coeff-Com: -0.271D-04-0.118D-03 0.366D-03 0.255D-02 0.139D-01 0.823D-01
 Coeff-Com:  0.329D+00 0.572D+00
 Coeff:     -0.271D-04-0.118D-03 0.366D-03 0.255D-02 0.139D-01 0.823D-01
 Coeff:      0.329D+00 0.572D+00
 Gap=     0.199 Goal=   None    Shift=    0.000
 RMSDP=5.62D-07 MaxDP=2.37D-05 DE=-1.86D-07 OVMax= 6.84D-05

 Cycle   9  Pass 1  IDiag  1:
 RMSU=  3.66D-07    CP:  9.55D-01  1.11D+00  8.11D-01  7.33D-01  7.47D-01
                    CP:  7.67D-01  7.88D-01  7.07D-01
 E= -825.624212695227     Delta-E=       -0.000000027099 Rises=F Damp=F
 DIIS: error= 1.40D-06 at cycle   9 NSaved=   9.
 NSaved= 9 IEnMin= 9 EnMin= -825.624212695227     IErMin= 9 ErrMin= 1.40D-06
 ErrMax= 1.40D-06  0.00D+00 EMaxC= 1.00D-01 BMatC= 1.32D-09 BMatP= 2.49D-08
 IDIUse=1 WtCom= 1.00D+00 WtEn= 0.00D+00
 Coeff-Com:  0.223D-04-0.570D-04-0.516D-03-0.118D-02-0.296D-02 0.616D-02
 Coeff-Com:  0.679D-01 0.237D+00 0.693D+00
 Coeff:      0.223D-04-0.570D-04-0.516D-03-0.118D-02-0.296D-02 0.616D-02
 Coeff:      0.679D-01 0.237D+00 0.693D+00
 Gap=     0.199 Goal=   None    Shift=    0.000
 RMSDP=1.39D-07 MaxDP=6.68D-06 DE=-2.71D-08 OVMax= 1.22D-05

 Cycle  10  Pass 1  IDiag  1:
 RMSU=  7.44D-08    CP:  9.55D-01  1.11D+00  8.11D-01  7.33D-01  7.47D-01
                    CP:  7.70D-01  7.96D-01  7.60D-01  7.93D-01
 E= -825.624212696552     Delta-E=       -0.000000001325 Rises=F Damp=F
 DIIS: error= 4.66D-07 at cycle  10 NSaved=  10.
 NSaved=10 IEnMin=10 EnMin= -825.624212696552     IErMin=10 ErrMin= 4.66D-07
 ErrMax= 4.66D-07  0.00D+00 EMaxC= 1.00D-01 BMatC= 9.25D-11 BMatP= 1.32D-09
 IDIUse=1 WtCom= 1.00D+00 WtEn= 0.00D+00
 Coeff-Com:  0.107D-04-0.191D-04-0.259D-03-0.665D-03-0.198D-02-0.736D-03
 Coeff-Com:  0.177D-01 0.874D-01 0.323D+00 0.575D+00
 Coeff:      0.107D-04-0.191D-04-0.259D-03-0.665D-03-0.198D-02-0.736D-03
 Coeff:      0.177D-01 0.874D-01 0.323D+00 0.575D+00
 Gap=     0.199 Goal=   None    Shift=    0.000
 RMSDP=3.32D-08 MaxDP=1.55D-06 DE=-1.33D-09 OVMax= 3.75D-06

 Cycle  11  Pass 1  IDiag  1:
 RMSU=  2.51D-08    CP:  9.55D-01  1.11D+00  8.11D-01  7.33D-01  7.47D-01
                    CP:  7.70D-01  7.97D-01  7.62D-01  8.19D-01  7.62D-01
 E= -825.624212696621     Delta-E=       -0.000000000070 Rises=F Damp=F
 DIIS: error= 2.05D-07 at cycle  11 NSaved=  11.
 NSaved=11 IEnMin=11 EnMin= -825.624212696621     IErMin=11 ErrMin= 2.05D-07
 ErrMax= 2.05D-07  0.00D+00 EMaxC= 1.00D-01 BMatC= 9.06D-12 BMatP= 9.25D-11
 IDIUse=1 WtCom= 1.00D+00 WtEn= 0.00D+00
 Coeff-Com:  0.250D-05-0.248D-05-0.708D-04-0.195D-03-0.626D-03-0.103D-02
 Coeff-Com:  0.114D-02 0.162D-01 0.799D-01 0.274D+00 0.631D+00
 Coeff:      0.250D-05-0.248D-05-0.708D-04-0.195D-03-0.626D-03-0.103D-02
 Coeff:      0.114D-02 0.162D-01 0.799D-01 0.274D+00 0.631D+00
 Gap=     0.199 Goal=   None    Shift=    0.000
 RMSDP=1.15D-08 MaxDP=5.12D-07 DE=-6.96D-11 OVMax= 1.67D-06

 Cycle  12  Pass 1  IDiag  1:
 RMSU=  7.77D-09    CP:  9.55D-01  1.11D+00  8.11D-01  7.33D-01  7.47D-01
                    CP:  7.70D-01  7.97D-01  7.65D-01  8.23D-01  7.98D-01
                    CP:  7.27D-01
 E= -825.624212696644     Delta-E=       -0.000000000022 Rises=F Damp=F
 DIIS: error= 5.07D-08 at cycle  12 NSaved=  12.
 NSaved=12 IEnMin=12 EnMin= -825.624212696644     IErMin=12 ErrMin= 5.07D-08
 ErrMax= 5.07D-08  0.00D+00 EMaxC= 1.00D-01 BMatC= 1.04D-12 BMatP= 9.06D-12
 IDIUse=1 WtCom= 1.00D+00 WtEn= 0.00D+00
 Coeff-Com:  0.446D-06 0.111D-06-0.178D-04-0.513D-04-0.173D-03-0.457D-03
 Coeff-Com: -0.613D-03 0.210D-02 0.177D-01 0.969D-01 0.329D+00 0.556D+00
 Coeff:      0.446D-06 0.111D-06-0.178D-04-0.513D-04-0.173D-03-0.457D-03
 Coeff:     -0.613D-03 0.210D-02 0.177D-01 0.969D-01 0.329D+00 0.556D+00
 Gap=     0.199 Goal=   None    Shift=    0.000
 RMSDP=3.70D-09 MaxDP=1.61D-07 DE=-2.23D-11 OVMax= 5.40D-07

 Error on total polarization charges =  0.03778
 SCF Done:  E(RPBE1PBE) =  -825.624212697     A.U. after   12 cycles
            NFock= 12  Conv=0.37D-08     -V/T= 2.0105
 KE= 8.170702946157D+02 PE=-5.250480968941D+03 EE= 1.938874973396D+03
 SMD-CDS (non-electrostatic) energy       (kcal/mol) =      -7.52
 (included in total energy above)
 Leave Link  502 at Fri Mar 12 17:04:28 2021, MaxMem=  2684354560 cpu:            2533.1 elap:             127.6
 (Enter /opt/g16avx/l601.exe)
 Copying SCF densities to generalized density rwf, IOpCl= 0 IROHF=0.

 **********************************************************************

            Population analysis using the SCF density.

 **********************************************************************

 Orbital symmetries:
       Occupied  (A) (A) (A) (A) (A) (A) (A) (A) (A) (A) (A) (A)
                 (A) (A) (A) (A) (A) (A) (A) (A) (A) (A) (A) (A)
                 (A) (A) (A) (A) (A) (A) (A) (A) (A) (A) (A) (A)
                 (A) (A) (A) (A) (A) (A) (A) (A) (A) (A) (A) (A)
                 (A) (A) (A) (A) (A) (A) (A) (A) (A) (A) (A) (A)
                 (A) (A) (A) (A) (A) (A) (A) (A) (A) (A) (A) (A)
                 (A) (A)
       Virtual   (A) (A) (A) (A) (A) (A) (A) (A) (A) (A) (A) (A)
                 (A) (A) (A) (A) (A) (A) (A) (A) (A) (A) (A) (A)
                 (A) (A) (A) (A) (A) (A) (A) (A) (A) (A) (A) (A)
                 (A) (A) (A) (A) (A) (A) (A) (A) (A) (A) (A) (A)
                 (A) (A) (A) (A) (A) (A) (A) (A) (A) (A) (A) (A)
                 (A) (A) (A) (A) (A) (A) (A) (A) (A) (A) (A) (A)
                 (A) (A) (A) (A) (A) (A) (A) (A) (A) (A) (A) (A)
                 (A) (A) (A) (A) (A) (A) (A) (A) (A) (A) (A) (A)
                 (A) (A) (A) (A) (A) (A) (A) (A) (A) (A) (A) (A)
                 (A) (A) (A) (A) (A) (A) (A) (A) (A) (A) (A) (A)
                 (A) (A) (A) (A) (A) (A) (A) (A) (A) (A) (A) (A)
                 (A) (A) (A) (A) (A) (A) (A) (A) (A) (A) (A) (A)
                 (A) (A) (A) (A) (A) (A) (A) (A) (A) (A) (A) (A)
                 (A) (A) (A) (A) (A) (A) (A) (A) (A) (A) (A) (A)
                 (A) (A) (A) (A) (A) (A) (A) (A) (A) (A) (A) (A)
                 (A) (A) (A) (A) (A) (A) (A) (A) (A) (A) (A) (A)
                 (A) (A) (A) (A) (A) (A) (A) (A) (A) (A) (A) (A)
                 (A) (A) (A) (A) (A) (A) (A) (A) (A) (A) (A) (A)
                 (A) (A) (A) (A) (A) (A) (A) (A) (A) (A) (A) (A)
                 (A) (A) (A) (A) (A) (A) (A) (A) (A) (A) (A) (A)
                 (A) (A) (A) (A) (A) (A) (A) (A) (A) (A) (A) (A)
                 (A) (A) (A) (A) (A) (A) (A) (A) (A) (A) (A) (A)
                 (A) (A) (A) (A) (A) (A) (A) (A) (A) (A) (A) (A)
                 (A) (A) (A) (A) (A) (A) (A) (A) (A) (A) (A) (A)
                 (A) (A) (A) (A) (A) (A) (A) (A) (A) (A) (A) (A)
                 (A) (A) (A) (A) (A) (A) (A) (A) (A) (A) (A) (A)
                 (A) (A) (A) (A) (A) (A) (A) (A) (A) (A) (A) (A)
                 (A) (A) (A) (A) (A) (A) (A)
 The electronic state is 1-A.
 Alpha  occ. eigenvalues --  -14.37190 -14.37172 -14.36951 -10.26475 -10.25329
 Alpha  occ. eigenvalues --  -10.25181 -10.24635 -10.24465 -10.24167 -10.24096
 Alpha  occ. eigenvalues --  -10.23490 -10.23275 -10.23100 -10.23055 -10.22997
 Alpha  occ. eigenvalues --  -10.22963 -10.22828 -10.22584 -10.21870 -10.20672
 Alpha  occ. eigenvalues --   -0.99263  -0.92756  -0.90195  -0.87639  -0.82262
 Alpha  occ. eigenvalues --   -0.81807  -0.77243  -0.76075  -0.70874  -0.70314
 Alpha  occ. eigenvalues --   -0.69818  -0.69675  -0.66133  -0.63254  -0.61908
 Alpha  occ. eigenvalues --   -0.60357  -0.59468  -0.57535  -0.55376  -0.53033
 Alpha  occ. eigenvalues --   -0.50862  -0.48761  -0.48522  -0.48269  -0.47794
 Alpha  occ. eigenvalues --   -0.47186  -0.46865  -0.45859  -0.44156  -0.43114
 Alpha  occ. eigenvalues --   -0.42374  -0.41785  -0.41285  -0.39866  -0.39172
 Alpha  occ. eigenvalues --   -0.39104  -0.38783  -0.37980  -0.37757  -0.37536
 Alpha  occ. eigenvalues --   -0.37400  -0.36773  -0.36269  -0.35413  -0.34819
 Alpha  occ. eigenvalues --   -0.34381  -0.33732  -0.32991  -0.31337  -0.26643
 Alpha  occ. eigenvalues --   -0.26092  -0.23709  -0.22149  -0.20052
 Alpha virt. eigenvalues --   -0.00201   0.00221   0.06003   0.07565   0.07854
 Alpha virt. eigenvalues --    0.09001   0.09703   0.09938   0.10154   0.11721
 Alpha virt. eigenvalues --    0.12535   0.12821   0.14177   0.14538   0.14672
 Alpha virt. eigenvalues --    0.15463   0.15839   0.16039   0.16287   0.16728
 Alpha virt. eigenvalues --    0.17036   0.17439   0.18309   0.18681   0.19176
 Alpha virt. eigenvalues --    0.19700   0.20205   0.20538   0.21244   0.21491
[...]
 43,-0.00002608,0.00000649,0.00000450,0.00001049,-0.00000678,0.00000192
 ,-0.00000756,0.00000922,0.00000036,0.00053959,-0.00057156,0.00027562,0
 .00003839,0.00011443,-0.00002049,0.00000420,0.00001371,0.00000906,-0.0
 0000131,0.00000686,-0.00003252,0.00001949,0.00000260,0.00000843,-0.000
 01093,-0.00002283,0.00001248,0.00002345,0.00000210,-0.00001261,0.00000
 023,0.00001155,-0.00000473,-0.00000844,-0.00000472,0.00001234,0.000008
 63,-0.00000803,-0.00000253,-0.00001865,0.00000773,-0.00001844,-0.00000
 036,0.00000113,0.00000304,0.00000325,-0.00000402,-0.00000192,0.0006577
 6,0.00202022,-0.00087878,0.00002195,-0.00093618,0.00003776,-0.00014350
 ,-0.00003801,0.00004174,0.00055946,0.02465378,-0.01210639,-0.00506508,
 0.00148537,0.00031544,-0.06391932,0.03991942,-0.01742522,-0.00110790,-
 0.00029610,0.00012976,0.00751206,-0.02228930,0.01080862,-0.00337027,-0
 .00209408,0.00194225,-0.00012764,0.00131804,-0.00060898,0.06313542,-0.
 00000019,0.00000845,-0.00001132,-0.00000089,0.00000070,0.00001502,-0.0
 0000456,-0.00000178,0.00001037,0.00000501,0.00000243,-0.00000067,-0.00
 000035,0.00000268,-0.00000364,0.00002592,-0.00000062,-0.00002335,0.000
 00086,-0.00000167,0.00000019,-0.00000009,0.00000492,-0.00000367,-0.000
 01129,0.00000154,0.00000066,-0.00000708,-0.00000518,0.00001323,-0.0000
 4997,0.00010479,0.00007213,-0.00001572,-0.00001784,0.00001152,0.000002
 87,0.00000052,0.00000149,0.00000427,0.00000076,-0.00000292,0.00000900,
 0.00001376,-0.00001211,0.00000570,0.00000218,-0.00000237,0.00000157,-0
 .00000010,-0.00000012,0.00000076,0.00000407,-0.00000371,-0.00008734,0.
 00021025,-0.00001896,-0.00003157,-0.00012020,0.00001604,0.00000272,-0.
 00000777,-0.00000297,0.00000280,-0.00000649,0.00000421,-0.00000308,0.0
 0000160,0.00000120,0.00000294,0.00000762,-0.00000423,-0.00001331,-0.00
 001308,0.00000956,-0.00000054,0.00000244,0.00000937,0.00000537,0.00000
 819,-0.00000668,0.00000161,0.00000069,-0.00000230,-0.00000732,-0.00001
 020,0.00001155,0.00000081,0.00000134,-0.00000075,0.00000065,0.00000003
 ,-0.00000088,-0.00170160,-0.00012275,-0.00179329,0.00064733,0.00027745
 ,-0.00014023,0.00040279,0.00010598,-0.00013122,-0.00128381,-0.00627675
 ,0.00512732,0.00258328,0.00210921,0.00206328,0.03935039,-0.27962506,0.
 11467241,-0.00020840,0.00037833,-0.00065752,0.00586157,-0.00941629,0.0
 0625103,-0.00303117,0.00146809,0.00313985,-0.00020752,-0.00041015,0.00
 032691,-0.04240879,0.29227797,0.00000785,-0.00001287,-0.00001798,-0.00
 000825,-0.00001088,-0.00000733,0.00000652,0.00001806,0.00001389,-0.000
 00740,-0.00000456,-0.00000187,-0.00000010,0.00000147,0.00000204,-0.000
 01998,0.00001699,0.00002740,-0.00000227,-0.00000433,0.00000013,-0.0000
 0079,0.00000186,-0.00000095,-0.00002975,-0.00002282,0.00000661,-0.0000
 0782,0.00000239,0.00000023,-0.00003197,0.00008069,-0.00007049,0.000014
 69,0.00000468,0.00001114,-0.00000575,-0.00000257,-0.00000386,0.0000013
 9,0.00000496,0.00000328,0.00000596,-0.00001666,-0.00001338,0.00000814,
 0.00000912,0.00001472,0.00000157,-0.00000079,-0.00000290,-0.00000004,0
 .00000125,0.00000138,-0.00025647,-0.00039758,0.00006221,-0.00005097,0.
 00006131,0.00004506,-0.00001113,-0.00001777,0.00001196,-0.00000525,0.0
 0002244,-0.00002432,0.00000750,-0.00000255,-0.00000478,-0.00000952,-0.
 00000744,0.00001231,0.00000807,0.00000061,-0.00000960,0.00000018,-0.00
 000168,0.00000590,0.00000341,0.00000181,-0.00000095,-0.00000092,-0.000
 00265,0.00000016,0.00000097,-0.00000353,-0.00000025,-0.00000201,-0.000
 00132,-0.00000174,0.00000242,-0.00000093,-0.00000059,0.00063920,-0.000
 65538,-0.00319588,0.00004162,-0.00082522,0.00041806,0.00039620,0.00002
 930,-0.00037043,0.00034437,0.00278855,0.00277186,-0.00030726,0.0025229
 9,0.00566411,-0.01716317,0.11443624,-0.09255293,-0.00007968,-0.0006666
 4,-0.00062770,-0.00301230,0.00834452,-0.00033026,0.00242207,0.00299492
 ,0.00578777,0.00013761,0.00016397,0.00000500,0.01756090,-0.12678899,0.
 08651075,-0.00000301,0.00001506,-0.00000752,0.00000276,-0.00000897,-0.
 00001073,-0.00000761,0.00000622,0.00000167,-0.00000373,-0.00000177,0.0
 0000126,0.00000058,0.00000314,-0.00000359,-0.00000746,0.00000704,0.000
 00489,-0.00000424,-0.00000112,0.00000175,0.00000200,0.00000458,-0.0000
 0448,0.00001105,0.00000323,-0.00000803,-0.00000073,-0.00002389,0.00000
 897,0.00003816,0.00000295,-0.00004645,-0.00002875,-0.00002810,0.000024
 62,-0.00000239,0.00000336,-0.00000231,0.00000642,-0.00000288,0.,0.0000
 0868,0.00002917,-0.00001551,0.00000757,0.00001163,-0.00000969,-0.00000
 690,0.00000275,0.00000022,0.00000656,-0.00000062,-0.00000417,-0.000051
 63,0.00009048,-0.00005303,-0.00000297,-0.00001210,0.00000796,-0.000002
 42,-0.00000478,-0.00000252,0.00000082,-0.00000142,0.00000722,-0.000004
 24,-0.00000146,-0.00000146,0.00000142,0.00000793,-0.00000364,-0.000015
 95,0.00000201,0.00000407,0.00001019,-0.00001041,0.00000639,0.00000470,
 0.00000724,-0.00000918,-0.00000745,0.00000051,0.00000396,-0.00000741,-
 0.00001357,0.00001888,0.00000198,0.00000225,-0.00000073,-0.00000075,0.
 00000056,-0.00000049,0.00069422,-0.00086143,0.00034393,-0.00025191,-0.
 00021475,0.00013114,-0.00001187,-0.00000195,0.00002955,-0.00349263,-0.
 00230615,0.00216930,0.00762048,-0.02212535,0.01086319,-0.00111047,-0.0
 0023255,0.00013496,-0.06469635,0.04021974,-0.01845142,-0.00504321,0.00
 164907,0.00010280,0.00078553,0.02592474,-0.01283626,0.00104301,0.00028
 678,-0.00059651,0.00010889,-0.00002069,-0.00007942,0.06332822,-0.00001
 945,0.00000522,-0.00001061,0.00000648,-0.00000704,-0.00002127,0.000003
 06,0.00001935,0.00000397,-0.00001033,-0.00000593,-0.00000074,0.0000018
 9,0.00000437,-0.00000393,-0.00001208,0.00000546,0.00001738,-0.00000944
 ,-0.00000116,0.00000335,0.00000203,0.00000306,-0.00000401,-0.00000252,
 -0.00000468,-0.00000395,-0.00000305,-0.00002750,0.00001890,0.00011927,
 0.00001522,-0.00008226,-0.00000510,-0.00001020,0.00002805,-0.00000858,
 -0.00000141,-0.00000664,0.00000769,-0.00000030,0.00000536,-0.00000910,
 0.00002232,-0.00002943,0.00000022,0.00000028,-0.00000186,-0.00000942,0
 .00000427,-0.00000151,0.00001733,-0.00001045,0.00000636,-0.00023705,0.
 00000932,0.00002612,0.00000002,0.00001663,0.00002526,-0.00000674,-0.00
 000569,-0.00000616,0.00000263,0.00000209,0.00001744,-0.00000898,-0.000
 00673,-0.00000413,0.00000448,0.00001169,-0.00000591,-0.00000762,0.0000
 1000,0.00000229,0.00001349,-0.00002149,-0.00000446,0.00000439,0.000004
 33,-0.00001045,-0.00001197,0.00000291,0.00000431,0.00001090,-0.0000151
 2,0.00001939,-0.00000067,-0.00000168,-0.00000284,-0.00000105,0.0000028
 1,0.00000082,0.00077938,-0.00044032,0.00020190,-0.00017752,-0.00017202
 ,0.00006379,-0.00006150,-0.00002585,0.00003417,-0.00288735,0.00152487,
 0.00331099,0.00557326,-0.00927322,0.00624733,-0.00034335,0.00044578,-0
 .00064650,0.04029575,-0.27979982,0.11853104,0.00244840,0.00230163,0.00
 229728,-0.00210032,-0.00475107,0.00459299,0.00000824,-0.00013074,-0.00
 216224,-0.00002597,-0.00029044,-0.00039500,-0.04308230,0.29116748,0.00
 001048,-0.00000734,-0.00000997,-0.00001269,0.00000546,0.00001218,0.000
 00165,-0.00000787,0.00000112,0.00000398,0.00000121,-0.00000101,0.00000
 018,0.00000010,-0.00000056,0.00001888,-0.00000024,-0.00001024,0.000007
 95,-0.00000068,-0.00000247,-0.00000187,0.00000075,0.00000056,0.0000031
 5,0.00001198,0.00000734,-0.00002257,0.00000704,0.00001103,-0.00002439,
 -0.00001870,0.00004231,0.00000520,0.00000928,-0.00000201,0.00000238,-0
 .00000274,0.00000062,0.00000463,0.00000508,-0.00000235,0.00001235,-0.0
 0001343,-0.00000945,0.00000221,-0.00000528,0.00000417,0.00001057,-0.00
 000322,-0.00000205,-0.00000546,0.00000782,0.00000434,-0.00001032,0.000
 01543,0.00000985,-0.00004486,0.00000714,-0.00000851,-0.00000471,-0.000
 00195,0.00000332,0.00000432,0.00000061,-0.00000634,0.00000325,0.000000
 66,0.00000119,-0.00000058,-0.00000300,-0.00000021,0.00000688,-0.000003
 57,-0.00000546,-0.00000915,0.00001325,0.00000958,-0.00000322,-0.000001
 32,0.00000284,0.00001032,-0.00000250,-0.00000485,-0.00001049,-0.000003
 39,-0.00000233,-0.00000127,-0.00000039,0.00000020,0.00000343,-0.000001
 51,-0.00000199,-0.00023420,0.00031197,-0.00001101,0.00016603,0.0000587
 6,-0.00015488,0.00001787,0.00004495,-0.00001641,0.00218624,0.00302777,
 0.00570924,-0.00300798,0.00851800,-0.00001968,0.00010965,-0.00068613,-
 0.00058925,-0.01842332,0.11858256,-0.09724883,-0.00029238,0.00233636,0
 .00613021,0.00125226,0.00249012,0.00269169,-0.00036096,-0.00218375,-0.
 00325356,-0.00008789,-0.00038321,-0.00087539,0.01898761,-0.13032852,0.
 09073882,-0.00002266,-0.00001226,0.00000307,0.00001197,-0.00000408,-0.
 00003497,0.00001075,0.00003015,-0.00000044,-0.00001506,-0.00000850,-0.
 00000137,0.00000182,0.00000034,0.00000312,-0.00004278,0.00000094,0.000
 04541,-0.00001211,-0.00000115,0.00000389,0.00000214,-0.00000266,0.0000
 0107,-0.00002018,-0.00002677,0.00000444,0.00001432,-0.00000994,-0.0000
 0032,0.00007368,0.00005430,-0.00018017,0.00001379,0.00000839,0.0000142
 3,-0.00001068,-0.00000260,-0.00000737,-0.00000166,-0.00000217,0.000009
 43,-0.00002561,-0.00000332,-0.00001026,0.00000119,-0.00000479,0.000007
 46,-0.00000908,0.00000379,-0.00000134,0.00000505,-0.00001375,0.0000075
 9,-0.00046228,-0.00023697,0.00024986,0.00002209,0.00002680,0.00001799,
 -0.00000439,-0.00000098,-0.00000937,-0.00000273,0.00000880,0.00001315,
 -0.00000788,-0.00000823,-0.00000560,0.00000191,0.00000414,0.00000375,-
 0.00000105,0.00001211,-0.00000372,0.00000352,-0.00001586,-0.00000387,0
 .00000314,-0.00000189,-0.00000400,-0.00001138,0.00000393,0.00000366,0.
 00002672,0.00000319,0.00000063,-0.00000212,-0.00000402,-0.00000293,-0.
 00000202,0.00000272,0.00000275,-0.00032707,0.00090010,-0.00043978,-0.0
 0000968,-0.00006549,-0.00000545,-0.00007437,-0.00003331,0.00005622,-0.
 00162637,-0.00330681,0.00240638,0.00051898,-0.00067496,0.00021815,-0.0
 1604316,0.01146196,-0.00398845,0.00175448,0.00087475,0.00002950,-0.304
 57522,0.09709326,-0.02651859,0.00003506,-0.00184293,0.00125929,-0.0000
 6874,0.00001220,-0.00009524,0.00105137,-0.00010097,-0.00038932,-0.0001
 1902,-0.00009568,0.00006578,0.31931479,0.00000300,-0.00000008,-0.00000
 361,-0.00000177,-0.00000523,-0.00001084,-0.00000098,0.00000627,0.00000
 304,-0.00000441,-0.00000253,0.00000064,0.00000017,0.00000045,0.0000007
 3,-0.00001907,0.00000128,0.00001773,-0.00000143,-0.00000151,0.00000065
 ,0.00000012,0.00000075,-0.00000046,-0.00000016,-0.00000537,-0.00000140
 ,-0.00000178,-0.00000514,0.00000252,-0.00002106,0.00000086,-0.00008411
 ,-0.00000426,-0.00000360,0.00000680,-0.00000244,0.00000031,-0.00000185
 ,0.00000199,0.00000045,0.00000157,0.00000358,0.00000170,-0.00000542,0.
 00000189,0.00000187,-0.00000005,-0.00000107,0.00000019,-0.00000085,0.0
 0000207,-0.00000142,-0.00000006,-0.00016928,-0.00010731,0.00011314,-0.
 00000552,-0.00000438,-0.00000246,-0.00000382,-0.00000146,-0.00000108,0
 .,0.00000495,-0.00000032,-0.00000036,-0.00000209,-0.00000101,-0.000001
 40,-0.00000055,0.00000260,-0.00000446,-0.00000134,-0.00000003,0.000001
 93,-0.00000210,0.00000205,0.00000119,0.00000208,-0.00000170,-0.0000004
 9,0.00000030,0.00000101,-0.00000185,-0.00000253,0.00000294,-0.00000001
 ,0.00000018,-0.00000031,0.00000050,-0.00000039,-0.00000035,-0.00048648
 ,0.00055861,-0.00026755,0.00002651,-0.00004865,-0.00001624,0.00004933,
 0.00000585,0.00002992,-0.00276089,0.00013218,0.00400727,-0.00063718,-0
 .00091183,-0.00000550,-0.01650514,0.00944176,-0.00136638,0.00009817,-0
 .00307335,0.00511990,0.09728532,-0.09190028,0.01846780,0.02611002,-0.0
 0409303,0.00185798,0.00001017,-0.00014718,-0.00045575,0.00022351,-0.00
 010838,-0.00211925,0.00124790,-0.00032109,0.00016317,-0.10397909,0.090
 36679,0.00000269,-0.00000210,-0.00000730,-0.00000371,0.00000020,0.0000
 0885,0.00000315,-0.00000761,0.00000398,0.00000145,0.00000073,-0.000000
 82,-0.00000033,0.00000072,-0.00000069,0.00000877,0.00000546,-0.0000082
 5,0.00000390,-0.00000020,-0.00000159,-0.00000117,0.00000165,-0.0000008
 3,0.00000821,0.00001496,-0.00000262,-0.00000508,0.00000354,0.00000234,
 0.00001978,-0.00003216,0.00003163,0.00000321,0.00000329,0.00000021,-0.
 00000080,-0.00000158,-0.00000004,0.00000165,0.00000238,0.00000056,0.00
 000297,-0.00000449,-0.00000567,-0.00000328,0.00000387,-0.00000310,0.00
 000234,-0.00000156,-0.00000028,-0.00000057,0.00000168,0.00000021,0.000
 24856,0.00005932,-0.00013450,-0.00002595,-0.00000179,-0.00002303,-0.00
 000330,-0.00000607,0.00000438,0.00000131,0.00000434,-0.00000195,-0.000
 00036,0.00000033,-0.00000041,-0.00000034,-0.00000002,-0.00000005,0.000
 00083,-0.00000783,0.00000111,0.00000178,0.00000403,0.00000151,0.000000
 32,0.00000277,-0.00000183,0.00000263,-0.00000066,-0.00000199,-0.000002
 23,-0.00000202,0.00000080,-0.00000068,-0.00000037,-0.00000039,0.000001
 10,-0.00000046,-0.00000053,0.00024327,-0.00017720,0.00027250,-0.000006
 48,-0.00001505,0.00001128,0.00005813,0.00001396,-0.00001924,0.00189131
 ,0.00398069,0.00534833,0.00013304,-0.00007186,-0.00091874,0.00994028,-
 0.00372799,0.00487989,0.00050966,0.00507924,0.00462030,-0.02651503,0.0
 1828841,-0.04523512,-0.01278477,0.00437118,0.00283728,-0.00007571,-0.0
 0047012,-0.00080954,-0.00056539,-0.00206410,-0.00329127,-0.00059043,0.
 00024892,0.00007043,0.02765655,-0.02329863,0.03544200,-0.00002020,-0.0
 0000939,0.00000067,0.00000719,0.00000056,-0.00001524,0.00001043,0.0000
 1669,-0.00000115,-0.00000808,-0.00000453,-0.00000195,0.00000097,0.0000
 0063,0.00000077,-0.00001143,-0.00000110,0.00001953,-0.00000773,0.00000
 007,0.00000262,0.00000077,-0.00000223,0.00000080,-0.00001546,-0.000011
 72,0.00000488,0.00001132,-0.00000209,-0.00000072,0.00010794,0.00001609
 ,-0.00004810,0.00002392,0.00001360,0.00000399,-0.00000753,-0.00000422,
 -0.00000389,-0.00000111,-0.00000068,0.00000803,-0.00002494,-0.00000322
 ,-0.00000926,-0.00001526,-0.00001494,0.00001240,-0.00000858,0.00000147
 ,0.00000110,0.00000672,-0.00001248,0.00000914,-0.00015312,-0.00018956,
 0.00008693,0.00001619,0.00006526,0.00002492,-0.00000210,0.00000032,-0.
 00000619,-0.00000227,0.00000382,0.00000978,-0.00000494,-0.00000561,-0.
 00000287,0.00000167,0.00000259,0.00000040,0.00001022,0.00001089,-0.000
 00629,0.00000440,-0.00001045,-0.00001117,-0.00000086,-0.00000376,0.000
 00074,-0.00000954,0.00000107,0.00000431,0.00002199,0.00000020,0.000000
 20,-0.00000215,-0.00000393,-0.00000214,-0.00000170,0.00000243,0.000002
 47,0.00004208,-0.00001545,-0.00011607,-0.00002160,-0.00006616,0.000020
 42,0.00001283,0.00000040,0.00001093,-0.00005142,0.00085271,-0.00044409
 ,-0.00385899,0.00343467,-0.00090033,0.00122473,0.00140509,-0.00020399,
 -0.01536948,-0.01745305,0.01035909,0.00709323,0.00531396,-0.00297156,-
 0.23300472,-0.11909838,0.07548446,-0.00071718,-0.00078533,0.00046687,0
 .00020460,0.00027802,-0.00012909,0.00119983,-0.00016178,-0.00033895,0.
 00063052,-0.00045299,-0.00016126,0.24268883,-0.00000918,-0.00000390,-0
 .00000283,0.00000359,0.00000105,-0.00000404,0.00000304,0.00000947,0.00
 000238,-0.00000296,-0.00000212,-0.00000128,0.00000066,0.00000082,-0.00
 000024,-0.00000256,0.00000175,0.00000322,-0.00000328,-0.00000071,0.000
 00126,0.00000060,0.00000021,-0.00000041,-0.00001141,-0.00001002,0.0000
 0286,0.00000013,-0.00000397,0.00000541,0.00000151,0.00005039,-0.000032
 07,0.00000164,-0.00000054,0.00000863,-0.00000312,-0.00000142,-0.000002
 41,0.00000036,0.00000011,0.00000201,-0.00000666,0.00000059,-0.00000856
 ,0.00001042,0.00000474,0.00000172,-0.00000093,0.00000147,-0.00000123,-
 0.00000015,-0.00000208,0.00000155,-0.00008367,0.00000075,-0.00002099,-
 0.00001056,-0.00002540,0.00001857,-0.00000128,-0.00000218,-0.00000179,
 0.00000116,0.00000060,0.00000676,-0.00000452,-0.00000219,-0.00000207,0
 .00000306,0.00000439,-0.00000163,-0.00000115,-0.00000067,-0.00000144,0
 .00000118,-0.00000237,0.00000280,0.00000188,0.00000077,-0.00000248,-0.
 00000149,0.00000131,0.00000014,0.00000841,-0.00000098,0.00000311,-0.00
 000080,-0.00000139,-0.00000147,-0.00000023,0.00000111,0.00000059,-0.00
 000042,-0.00005175,-0.00050467,0.00003722,0.00000144,0.00001553,0.0000
 6592,0.00003583,-0.00003894,0.00073712,-0.00065967,-0.00014881,0.00262
 808,0.00144752,0.00275488,0.00224320,-0.00258497,0.00474059,0.01041992
 ,0.00922213,-0.00367623,-0.02270143,-0.00862992,0.00795198,-0.11900256
 ,-0.13552567,0.05870954,0.00045691,0.00030550,-0.00009138,-0.00105541,
 -0.00056126,0.00045324,-0.00057207,-0.00025513,-0.00196072,-0.00004270
 ,0.00022402,-0.00219784,0.12689252,0.13701233,0.00000702,-0.00000270,-
 0.00000821,-0.00000698,0.00000199,0.00000768,-0.00000183,0.00000253,0.
 00000441,0.00000233,0.00000045,-0.00000045,-0.00000039,0.00000020,-0.0
 0000041,0.00001154,0.00000380,-0.00000510,0.00000238,-0.00000196,-0.00
 000015,-0.00000107,0.00000085,0.00000002,-0.00001263,-0.00000809,0.000
 00608,-0.00001190,0.00000257,0.00000525,-0.00005012,0.00005431,0.00000
 959,0.00000294,0.00000084,0.00000125,0.00000043,-0.00000135,0.00000052
 ,0.00000250,0.00000264,-0.00000051,0.00000793,-0.00000397,-0.00000716,
 0.00001075,0.00000757,0.00000637,0.00000364,-0.00000170,-0.00000083,-0
 .00000147,0.00000377,0.00000073,0.00010952,-0.00010434,-0.00000631,-0.
 00002088,-0.00000639,0.00002282,-0.00000245,-0.00000099,0.00000220,0.0
 0000218,0.00000146,-0.00000435,0.00000147,-0.00000002,0.00000067,-0.00
 000067,-0.00000167,0.00000027,0.00000538,-0.00000400,-0.00000465,0.000
 00052,0.00000618,0.00000210,-0.00000217,0.00000037,0.00000216,0.000004
 66,-0.00000254,-0.00000041,-0.00000672,-0.00000376,0.00000122,-0.00000
 042,0.00000009,0.,0.00000188,-0.00000102,-0.00000114,0.00000123,-0.000
 21311,-0.00091354,0.00004800,-0.00013757,0.00004971,0.00013998,0.00004
 375,-0.00009776,-0.00061535,-0.00025027,-0.00063080,-0.00033993,0.0028
 4437,0.00585709,-0.00063659,0.00475946,0.00488281,-0.00406897,-0.00143
 855,0.00460496,0.01115560,0.00553149,-0.00020748,0.07561715,0.05875463
 ,-0.07329425,-0.00020390,-0.00002671,0.00023081,0.00050421,0.00030185,
 0.00002886,-0.00011683,-0.00197503,-0.00321222,-0.00038084,-0.00215622
 ,-0.00306782,-0.08116116,-0.06598322,0.06573596\\0.00000158,-0.0000005
 1,0.00000201,-0.00000160,-0.00000053,0.00000283,-0.00000286,0.00000042
 ,-0.00000067,0.00000067,-0.00000061,0.00000197,0.00000039,0.00000086,0
 .00000248,0.00000109,-0.00000054,-0.00000058,-0.00000022,0.00000204,-0
 .00000126,-0.00000052,0.00000208,0.00000053,0.00000146,-0.00000016,-0.
 00000026,-0.00000019,-0.00000057,-0.00000024,0.00000126,0.00000430,0.0
 0000074,-0.00000061,-0.00000004,-0.00000454,0.00000035,-0.00000271,0.0
 0000098,0.00000052,-0.00000277,0.00000041,0.00000141,-0.00000170,0.000
 00075,-0.00000017,0.00000078,0.00000132,-0.00000018,-0.00000027,-0.000
 00261,0.00000021,-0.00000079,-0.00000180,-0.00000274,-0.00000310,-0.00
 000128,0.00000009,-0.00000095,0.00000070,-0.00000035,-0.00000061,0.000
 00278,0.00000114,-0.00000228,0.00000266,0.00000064,-0.00000180,0.00000
 269,0.00000021,-0.00000059,0.00000358,-0.00000049,0.00000126,-0.000002
 06,-0.00000027,0.00000273,-0.00000168,-0.00000035,0.00000321,-0.000001
 04,-0.00000110,0.00000234,-0.00000269,0.00000006,0.00000145,-0.0000026
 3,0.00000030,-0.00000170,0.00000043,0.00000005,-0.00000045,-0.00000133
 ,-0.00000029,0.00000169,0.00000136,-0.00000047,0.00000056,0.00000132,-
 0.00000043,0.00000197,0.00000002,0.00000175,-0.00000108,0.00000102,-0.
 00000041,0.00000050,-0.00000127,-0.00000065,-0.00000007,0.00000062,-0.
 00000086,-0.00000062,-0.00000211,0.00000030,0.00000052,0.00000005,0.00
 000026,-0.00000105,-0.00000071,0.00000048,-0.00000037,-0.00000175,-0.0
 0000010,0.00000094,0.00000218,0.00000036,-0.00000107,-0.00000277,0.000
 00011,0.00000009,0.00000109,0.00000015,-0.00000077,-0.00000125\\\@


 Some scientists claim that hydrogen, because it is so
 plentiful, is the basic building block of the universe. 
 I dispute that. I say that stupidity is far more
 abundant than hydrogen, and THAT is the basic building 
 block of the universe.
                   --Frank Zappa
 Job cpu time:       0 days  9 hours 26 minutes 14.7 seconds.
 Elapsed time:       0 days  0 hours 28 minutes 20.4 seconds.
 File lengths (MBytes):  RWF=    948 Int=      0 D2E=      0 Chk=     28 Scr=      1
 Normal termination of Gaussian 16 at Fri Mar 12 18:16:07 2021.
