 Entering Gaussian System, Link 0=/opt/g16avx/g16
 Input=Boc2O_b.gjf
 Output=Boc2O_b.log
 Initial command:
 /opt/g16avx/l1.exe "/home/scratch/Gau-44290.inp" -scrdir="/home/scratch/"
 Entering Link 1 = /opt/g16avx/l1.exe PID=     44292.
  
 Copyright (c) 1988,1990,1992,1993,1995,1998,2003,2009,2016,
            Gaussian, Inc.  All Rights Reserved.
  
 This is part of the Gaussian(R) 16 program.  It is based on
 the Gaussian(R) 09 system (copyright 2009, Gaussian, Inc.),
 the Gaussian(R) 03 system (copyright 2003, Gaussian, Inc.),
 the Gaussian(R) 98 system (copyright 1998, Gaussian, Inc.),
 the Gaussian(R) 94 system (copyright 1995, Gaussian, Inc.),
 the Gaussian 92(TM) system (copyright 1992, Gaussian, Inc.),
 the Gaussian 90(TM) system (copyright 1990, Gaussian, Inc.),
 the Gaussian 88(TM) system (copyright 1988, Gaussian, Inc.),
 the Gaussian 86(TM) system (copyright 1986, Carnegie Mellon
 University), and the Gaussian 82(TM) system (copyright 1983,
 Carnegie Mellon University). Gaussian is a federally registered
 trademark of Gaussian, Inc.
  
 This software contains proprietary and confidential information,
 including trade secrets, belonging to Gaussian, Inc.
  
 This software is provided under written license and may be
 used, copied, transmitted, or stored only in accord with that
 written license.
  
 The following legend is applicable only to US Government
 contracts under FAR:
  
                    RESTRICTED RIGHTS LEGEND
  
 Use, reproduction and disclosure by the US Government is
 subject to restrictions as set forth in subparagraphs (a)
 and (c) of the Commercial Computer Software - Restricted
 Rights clause in FAR 52.227-19.
  
 Gaussian, Inc.
 340 Quinnipiac St., Bldg. 40, Wallingford CT 06492
  
  
 ---------------------------------------------------------------
 Warning -- This program may not be used in any manner that
 competes with the business of Gaussian, Inc. or will provide
 assistance to any competitor of Gaussian, Inc.  The licensee
 of this program is prohibited from giving any competitor of
 Gaussian, Inc. access to this program.  By using this program,
 the user acknowledges that Gaussian, Inc. is engaged in the
 business of creating and licensing software in the field of
 computational chemistry and represents and warrants to the
 licensee that it is not a competitor of Gaussian, Inc. and that
 it will not use this program in any manner prohibited above.
 ---------------------------------------------------------------
  

 Cite this work as:
 Gaussian 16, Revision A.03,
 M. J. Frisch, G. W. Trucks, H. B. Schlegel, G. E. Scuseria, 
 M. A. Robb, J. R. Cheeseman, G. Scalmani, V. Barone, 
 G. A. Petersson, H. Nakatsuji, X. Li, M. Caricato, A. V. Marenich, 
 J. Bloino, B. G. Janesko, R. Gomperts, B. Mennucci, H. P. Hratchian, 
 J. V. Ortiz, A. F. Izmaylov, J. L. Sonnenberg, D. Williams-Young, 
 F. Ding, F. Lipparini, F. Egidi, J. Goings, B. Peng, A. Petrone, 
 T. Henderson, D. Ranasinghe, V. G. Zakrzewski, J. Gao, N. Rega, 
 G. Zheng, W. Liang, M. Hada, M. Ehara, K. Toyota, R. Fukuda, 
 J. Hasegawa, M. Ishida, T. Nakajima, Y. Honda, O. Kitao, H. Nakai, 
 T. Vreven, K. Throssell, J. A. Montgomery, Jr., J. E. Peralta, 
 F. Ogliaro, M. J. Bearpark, J. J. Heyd, E. N. Brothers, K. N. Kudin, 
 V. N. Staroverov, T. A. Keith, R. Kobayashi, J. Normand, 
 K. Raghavachari, A. P. Rendell, J. C. Burant, S. S. Iyengar, 
 J. Tomasi, M. Cossi, J. M. Millam, M. Klene, C. Adamo, R. Cammi, 
 J. W. Ochterski, R. L. Martin, K. Morokuma, O. Farkas, 
 J. B. Foresman, and D. J. Fox, Gaussian, Inc., Wallingford CT, 2016.
 
 ******************************************
 Gaussian 16:  ES64L-G16RevA.03 25-Dec-2016
                12-Mar-2021 
 ******************************************
 %chk=boc_b.chk
 %nprocshared=10
 Will use up to   10 processors via shared memory.
 %mem=20Gb
 ----------------------------------------------------------------------
 #p opt PBE1PBE/DEF2SVP empiricaldispersion=gd3bj scrf=(SMD, solvent=Be
 nzene) freq=noraman
 ----------------------------------------------------------------------
 1/18=20,19=15,26=3,38=1/1,3;
 2/9=110,12=2,17=6,18=5,40=1/2;
 3/5=43,7=101,11=2,25=1,30=1,70=32201,71=1,72=12,74=-13,124=41/1,2,3;
 4//1;
 5/5=2,38=5,53=12/2;
 6/7=2,8=2,9=2,10=2,28=1/1;
 7//1,2,3,16;
 1/18=20,19=15,26=3/3(2);
 2/9=110/2;
 99//99;
 2/9=110/2;
 3/5=43,7=101,11=2,25=1,30=1,70=32205,71=1,72=12,74=-13,124=41/1,2,3;
 4/5=5,16=3,69=1/1;
 5/5=2,38=5,53=12/2;
 7//1,2,3,16;
 1/18=20,19=15,26=3/3(-5);
 2/9=110/2;
 6/7=2,8=2,9=2,10=2,19=2,28=1/1;
 99/9=1/99;
 Leave Link    1 at Fri Mar 12 22:56:40 2021, MaxMem=  2684354560 cpu:               0.9 elap:               0.1
 (Enter /opt/g16avx/l101.exe)
 ---------------------------
 Vatsadze, way 2 prod 2 part
 ---------------------------
 Symbolic Z-matrix:
 Charge =  0 Multiplicity = 1
 C                    -1.70868   0.51919   0.15451 
 O                    -2.22465   0.42783   1.25308 
 O                    -2.31368  -0.14688  -0.96662 
 C                    -3.50943  -0.74081  -0.80082 
 O                    -3.66663  -1.91645  -1.01372 
 O                    -1.07449   1.60851  -0.33803 
 O                    -4.42894   0.13769  -0.46615 
 C                    -5.78771  -0.26011  -0.0997 
 C                    -6.42934   1.05834   0.29958 
 H                    -5.89989   1.50337   1.15445 
 H                    -6.40092   1.7699   -0.53846 
 H                    -7.47824   0.89444   0.58376 
 C                    -5.73395  -1.2167    1.08245 
 H                    -5.28149  -2.17586   0.80074 
 H                    -5.14801  -0.77294   1.90038 
 H                    -6.75415  -1.40468   1.44653 
 C                    -6.48878  -0.86268  -1.30789 
 H                    -6.46982  -0.1576   -2.15227 
 H                    -6.01052  -1.80111  -1.61466 
 H                    -7.53926  -1.06788  -1.0557 
 C                    -1.38061   2.94022   0.1592 
 C                    -2.87385   3.20863   0.024 
 H                    -3.19616   3.06478  -1.01776 
 H                    -3.45417   2.53045   0.66244 
 H                    -3.09424   4.24586   0.3161 
 C                    -0.90753   3.11051   1.59734 
 H                    -1.43988   2.42332   2.26574 
 H                     0.17249   2.91782   1.67569 
 H                    -1.09257   4.14456   1.92427 
 C                    -0.58405   3.84076  -0.77198 
 H                     0.48912   3.60675  -0.70646 
 H                    -0.90866   3.70163  -1.8135 
 H                    -0.72812   4.89544  -0.49695 
 
 ITRead=  0  0  0  0  0  0  0  0  0  0  0  0  0  0  0  0  0  0  0  0
 ITRead=  0  0  0  0  0  0  0  0  0  0  0  0  0
 MicOpt= -1 -1 -1 -1 -1 -1 -1 -1 -1 -1 -1 -1 -1 -1 -1 -1 -1 -1 -1 -1
 MicOpt= -1 -1 -1 -1 -1 -1 -1 -1 -1 -1 -1 -1 -1
 NAtoms=     33 NQM=       33 NQMF=       0 NMMI=      0 NMMIF=      0
                NMic=       0 NMicF=      0.
                    Isotopes and Nuclear Properties:
 (Nuclear quadrupole moments (NQMom) in fm**2, nuclear magnetic moments (NMagM)
  in nuclear magnetons)

  Atom         1           2           3           4           5           6           7           8           9          10
 IAtWgt=          12          16          16          12          16          16          16          12          12           1
 AtmWgt=  12.0000000  15.9949146  15.9949146  12.0000000  15.9949146  15.9949146  15.9949146  12.0000000  12.0000000   1.0078250
 NucSpn=           0           0           0           0           0           0           0           0           0           1
 AtZEff=  -0.0000000  -0.0000000  -0.0000000  -0.0000000  -0.0000000  -0.0000000  -0.0000000  -0.0000000  -0.0000000  -0.0000000
 NQMom=    0.0000000   0.0000000   0.0000000   0.0000000   0.0000000   0.0000000   0.0000000   0.0000000   0.0000000   0.0000000
 NMagM=    0.0000000   0.0000000   0.0000000   0.0000000   0.0000000   0.0000000   0.0000000   0.0000000   0.0000000   2.7928460
 AtZNuc=   6.0000000   8.0000000   8.0000000   6.0000000   8.0000000   8.0000000   8.0000000   6.0000000   6.0000000   1.0000000

  Atom        11          12          13          14          15          16          17          18          19          20
 IAtWgt=           1           1          12           1           1           1          12           1           1           1
 AtmWgt=   1.0078250   1.0078250  12.0000000   1.0078250   1.0078250   1.0078250  12.0000000   1.0078250   1.0078250   1.0078250
 NucSpn=           1           1           0           1           1           1           0           1           1           1
 AtZEff=  -0.0000000  -0.0000000  -0.0000000  -0.0000000  -0.0000000  -0.0000000  -0.0000000  -0.0000000  -0.0000000  -0.0000000
 NQMom=    0.0000000   0.0000000   0.0000000   0.0000000   0.0000000   0.0000000   0.0000000   0.0000000   0.0000000   0.0000000
 NMagM=    2.7928460   2.7928460   0.0000000   2.7928460   2.7928460   2.7928460   0.0000000   2.7928460   2.7928460   2.7928460
 AtZNuc=   1.0000000   1.0000000   6.0000000   1.0000000   1.0000000   1.0000000   6.0000000   1.0000000   1.0000000   1.0000000

  Atom        21          22          23          24          25          26          27          28          29          30
 IAtWgt=          12          12           1           1           1          12           1           1           1          12
 AtmWgt=  12.0000000  12.0000000   1.0078250   1.0078250   1.0078250  12.0000000   1.0078250   1.0078250   1.0078250  12.0000000
 NucSpn=           0           0           1           1           1           0           1           1           1           0
 AtZEff=  -0.0000000  -0.0000000  -0.0000000  -0.0000000  -0.0000000  -0.0000000  -0.0000000  -0.0000000  -0.0000000  -0.0000000
 NQMom=    0.0000000   0.0000000   0.0000000   0.0000000   0.0000000   0.0000000   0.0000000   0.0000000   0.0000000   0.0000000
 NMagM=    0.0000000   0.0000000   2.7928460   2.7928460   2.7928460   0.0000000   2.7928460   2.7928460   2.7928460   0.0000000
 AtZNuc=   6.0000000   6.0000000   1.0000000   1.0000000   1.0000000   6.0000000   1.0000000   1.0000000   1.0000000   6.0000000

  Atom        31          32          33
 IAtWgt=           1           1           1
 AtmWgt=   1.0078250   1.0078250   1.0078250
 NucSpn=           1           1           1
 AtZEff=  -0.0000000  -0.0000000  -0.0000000
 NQMom=    0.0000000   0.0000000   0.0000000
 NMagM=    2.7928460   2.7928460   2.7928460
 AtZNuc=   1.0000000   1.0000000   1.0000000
 Leave Link  101 at Fri Mar 12 22:56:40 2021, MaxMem=  2684354560 cpu:               3.6 elap:               0.4
 (Enter /opt/g16avx/l103.exe)

 GradGradGradGradGradGradGradGradGradGradGradGradGradGradGradGradGradGrad
 Berny optimization.
 Initialization pass.
                           ----------------------------
                           !    Initial Parameters    !
                           ! (Angstroms and Degrees)  !
 --------------------------                            --------------------------
 ! Name  Definition              Value          Derivative Info.                !
 --------------------------------------------------------------------------------
 ! R1    R(1,2)                  1.2171         estimate D2E/DX2                !
 ! R2    R(1,3)                  1.4376         estimate D2E/DX2                !
 ! R3    R(1,6)                  1.3533         estimate D2E/DX2                !
 ! R4    R(3,4)                  1.3454         estimate D2E/DX2                !
 ! R5    R(4,5)                  1.2051         estimate D2E/DX2                !
 ! R6    R(4,7)                  1.315          estimate D2E/DX2                !
 ! R7    R(6,21)                 1.4541         estimate D2E/DX2                !
 ! R8    R(7,8)                  1.4625         estimate D2E/DX2                !
 ! R9    R(8,9)                  1.5197         estimate D2E/DX2                !
 ! R10   R(8,13)                 1.5216         estimate D2E/DX2                !
 ! R11   R(8,17)                 1.5213         estimate D2E/DX2                !
 ! R12   R(9,10)                 1.0996         estimate D2E/DX2                !
 ! R13   R(9,11)                 1.0997         estimate D2E/DX2                !
 ! R14   R(9,12)                 1.099          estimate D2E/DX2                !
 ! R15   R(13,14)                1.0973         estimate D2E/DX2                !
 ! R16   R(13,15)                1.0997         estimate D2E/DX2                !
 ! R17   R(13,16)                1.0994         estimate D2E/DX2                !
 ! R18   R(17,18)                1.1002         estimate D2E/DX2                !
 ! R19   R(17,19)                1.097          estimate D2E/DX2                !
 ! R20   R(17,20)                1.0996         estimate D2E/DX2                !
 ! R21   R(21,22)                1.5232         estimate D2E/DX2                !
 ! R22   R(21,26)                1.5235         estimate D2E/DX2                !
 ! R23   R(21,30)                1.5207         estimate D2E/DX2                !
 ! R24   R(22,23)                1.0999         estimate D2E/DX2                !
 ! R25   R(22,24)                1.0974         estimate D2E/DX2                !
 ! R26   R(22,25)                1.0999         estimate D2E/DX2                !
 ! R27   R(26,27)                1.0965         estimate D2E/DX2                !
 ! R28   R(26,28)                1.0999         estimate D2E/DX2                !
 ! R29   R(26,29)                1.1002         estimate D2E/DX2                !
 ! R30   R(30,31)                1.1003         estimate D2E/DX2                !
 ! R31   R(30,32)                1.0998         estimate D2E/DX2                !
 ! R32   R(30,33)                1.0994         estimate D2E/DX2                !
 ! A1    A(2,1,3)              119.388          estimate D2E/DX2                !
 ! A2    A(2,1,6)              125.9854         estimate D2E/DX2                !
 ! A3    A(3,1,6)              106.6381         estimate D2E/DX2                !
 ! A4    A(1,3,4)              118.8473         estimate D2E/DX2                !
 ! A5    A(3,4,5)              121.6584         estimate D2E/DX2                !
 ! A6    A(3,4,7)              110.9718         estimate D2E/DX2                !
 ! A7    A(5,4,7)              127.2643         estimate D2E/DX2                !
 ! A8    A(1,6,21)             120.9358         estimate D2E/DX2                !
 ! A9    A(4,7,8)              122.1214         estimate D2E/DX2                !
 ! A10   A(7,8,9)              102.8337         estimate D2E/DX2                !
 ! A11   A(7,8,13)             109.4407         estimate D2E/DX2                !
 ! A12   A(7,8,17)             109.6883         estimate D2E/DX2                !
 ! A13   A(9,8,13)             110.8674         estimate D2E/DX2                !
 ! A14   A(9,8,17)             110.9615         estimate D2E/DX2                !
 ! A15   A(13,8,17)            112.5988         estimate D2E/DX2                !
 ! A16   A(8,9,10)             110.6153         estimate D2E/DX2                !
 ! A17   A(8,9,11)             110.5008         estimate D2E/DX2                !
 ! A18   A(8,9,12)             109.969          estimate D2E/DX2                !
 ! A19   A(10,9,11)            108.5491         estimate D2E/DX2                !
 ! A20   A(10,9,12)            108.5945         estimate D2E/DX2                !
 ! A21   A(11,9,12)            108.5546         estimate D2E/DX2                !
 ! A22   A(8,13,14)            111.3848         estimate D2E/DX2                !
 ! A23   A(8,13,15)            110.0593         estimate D2E/DX2                !
 ! A24   A(8,13,16)            109.3886         estimate D2E/DX2                !
 ! A25   A(14,13,15)           108.9043         estimate D2E/DX2                !
 ! A26   A(14,13,16)           108.553          estimate D2E/DX2                !
 ! A27   A(15,13,16)           108.4896         estimate D2E/DX2                !
 ! A28   A(8,17,18)            110.3487         estimate D2E/DX2                !
 ! A29   A(8,17,19)            111.1004         estimate D2E/DX2                !
 ! A30   A(8,17,20)            109.3905         estimate D2E/DX2                !
 ! A31   A(18,17,19)           109.0312         estimate D2E/DX2                !
 ! A32   A(18,17,20)           108.1833         estimate D2E/DX2                !
 ! A33   A(19,17,20)           108.722          estimate D2E/DX2                !
 ! A34   A(6,21,22)            109.7197         estimate D2E/DX2                !
 ! A35   A(6,21,26)            111.087          estimate D2E/DX2                !
 ! A36   A(6,21,30)            102.8663         estimate D2E/DX2                !
 ! A37   A(22,21,26)           111.6237         estimate D2E/DX2                !
 ! A38   A(22,21,30)           110.7817         estimate D2E/DX2                !
 ! A39   A(26,21,30)           110.437          estimate D2E/DX2                !
 ! A40   A(21,22,23)           110.3824         estimate D2E/DX2                !
 ! A41   A(21,22,24)           110.9697         estimate D2E/DX2                !
 ! A42   A(21,22,25)           109.8183         estimate D2E/DX2                !
 ! A43   A(23,22,24)           108.3748         estimate D2E/DX2                !
 ! A44   A(23,22,25)           108.4302         estimate D2E/DX2                !
 ! A45   A(24,22,25)           108.8034         estimate D2E/DX2                !
 ! A46   A(21,26,27)           110.7692         estimate D2E/DX2                !
 ! A47   A(21,26,28)           110.6454         estimate D2E/DX2                !
 ! A48   A(21,26,29)           109.4717         estimate D2E/DX2                !
 ! A49   A(27,26,28)           108.8749         estimate D2E/DX2                !
 ! A50   A(27,26,29)           109.0403         estimate D2E/DX2                !
 ! A51   A(28,26,29)           107.9782         estimate D2E/DX2                !
 ! A52   A(21,30,31)           110.3939         estimate D2E/DX2                !
 ! A53   A(21,30,32)           110.5104         estimate D2E/DX2                !
 ! A54   A(21,30,33)           110.2584         estimate D2E/DX2                !
 ! A55   A(31,30,32)           108.5038         estimate D2E/DX2                !
 ! A56   A(31,30,33)           108.476          estimate D2E/DX2                !
 ! A57   A(32,30,33)           108.6385         estimate D2E/DX2                !
 ! D1    D(2,1,3,4)              6.7532         estimate D2E/DX2                !
 ! D2    D(6,1,3,4)           -143.9537         estimate D2E/DX2                !
 ! D3    D(2,1,6,21)           -24.5716         estimate D2E/DX2                !
 ! D4    D(3,1,6,21)           123.6351         estimate D2E/DX2                !
 ! D5    D(1,3,4,5)           -121.6724         estimate D2E/DX2                !
 ! D6    D(1,3,4,7)             61.8065         estimate D2E/DX2                !
 ! D7    D(3,4,7,8)           -173.951          estimate D2E/DX2                !
 ! D8    D(5,4,7,8)              9.7702         estimate D2E/DX2                !
 ! D9    D(1,6,21,22)          -55.3809         estimate D2E/DX2                !
 ! D10   D(1,6,21,26)           68.5215         estimate D2E/DX2                !
 ! D11   D(1,6,21,30)         -173.3173         estimate D2E/DX2                !
 ! D12   D(4,7,8,9)            175.8323         estimate D2E/DX2                !
 ! D13   D(4,7,8,13)            57.9388         estimate D2E/DX2                !
 ! D14   D(4,7,8,17)           -66.0552         estimate D2E/DX2                !
 ! D15   D(7,8,9,10)           -61.1141         estimate D2E/DX2                !
 ! D16   D(7,8,9,11)            59.1188         estimate D2E/DX2                !
 ! D17   D(7,8,9,12)           178.9413         estimate D2E/DX2                !
 ! D18   D(13,8,9,10)           55.7687         estimate D2E/DX2                !
 ! D19   D(13,8,9,11)          176.0016         estimate D2E/DX2                !
 ! D20   D(13,8,9,12)          -64.176          estimate D2E/DX2                !
 ! D21   D(17,8,9,10)         -178.3269         estimate D2E/DX2                !
 ! D22   D(17,8,9,11)          -58.094          estimate D2E/DX2                !
 ! D23   D(17,8,9,12)           61.7285         estimate D2E/DX2                !
 ! D24   D(7,8,13,14)          -67.8524         estimate D2E/DX2                !
 ! D25   D(7,8,13,15)           53.0381         estimate D2E/DX2                !
 ! D26   D(7,8,13,16)          172.1434         estimate D2E/DX2                !
 ! D27   D(9,8,13,14)          179.4022         estimate D2E/DX2                !
 ! D28   D(9,8,13,15)          -59.7073         estimate D2E/DX2                !
 ! D29   D(9,8,13,16)           59.398          estimate D2E/DX2                !
 ! D30   D(17,8,13,14)          54.4169         estimate D2E/DX2                !
 ! D31   D(17,8,13,15)         175.3074         estimate D2E/DX2                !
 ! D32   D(17,8,13,16)         -65.5874         estimate D2E/DX2                !
 ! D33   D(7,8,17,18)          -55.5179         estimate D2E/DX2                !
 ! D34   D(7,8,17,19)           65.5393         estimate D2E/DX2                !
 ! D35   D(7,8,17,20)         -174.4244         estimate D2E/DX2                !
 ! D36   D(9,8,17,18)           57.4186         estimate D2E/DX2                !
 ! D37   D(9,8,17,19)          178.4759         estimate D2E/DX2                !
 ! D38   D(9,8,17,20)          -61.4878         estimate D2E/DX2                !
 ! D39   D(13,8,17,18)        -177.6474         estimate D2E/DX2                !
 ! D40   D(13,8,17,19)         -56.5902         estimate D2E/DX2                !
 ! D41   D(13,8,17,20)          63.4461         estimate D2E/DX2                !
 ! D42   D(6,21,22,23)         -55.5265         estimate D2E/DX2                !
 ! D43   D(6,21,22,24)          64.6416         estimate D2E/DX2                !
 ! D44   D(6,21,22,25)        -175.0249         estimate D2E/DX2                !
 ! D45   D(26,21,22,23)       -179.1148         estimate D2E/DX2                !
 ! D46   D(26,21,22,24)        -58.9467         estimate D2E/DX2                !
 ! D47   D(26,21,22,25)         61.3868         estimate D2E/DX2                !
 ! D48   D(30,21,22,23)         57.3681         estimate D2E/DX2                !
 ! D49   D(30,21,22,24)        177.5362         estimate D2E/DX2                !
 ! D50   D(30,21,22,25)        -62.1303         estimate D2E/DX2                !
 ! D51   D(6,21,26,27)         -63.3811         estimate D2E/DX2                !
 ! D52   D(6,21,26,28)          57.4576         estimate D2E/DX2                !
 ! D53   D(6,21,26,29)         176.3432         estimate D2E/DX2                !
 ! D54   D(22,21,26,27)         59.43           estimate D2E/DX2                !
 ! D55   D(22,21,26,28)       -179.7313         estimate D2E/DX2                !
 ! D56   D(22,21,26,29)        -60.8457         estimate D2E/DX2                !
 ! D57   D(30,21,26,27)       -176.858          estimate D2E/DX2                !
 ! D58   D(30,21,26,28)        -56.0192         estimate D2E/DX2                !
 ! D59   D(30,21,26,29)         62.8663         estimate D2E/DX2                !
 ! D60   D(6,21,30,31)         -59.9688         estimate D2E/DX2                !
 ! D61   D(6,21,30,32)          60.07           estimate D2E/DX2                !
 ! D62   D(6,21,30,33)        -179.8109         estimate D2E/DX2                !
 ! D63   D(22,21,30,31)       -177.1545         estimate D2E/DX2                !
 ! D64   D(22,21,30,32)        -57.1157         estimate D2E/DX2                !
 ! D65   D(22,21,30,33)         63.0034         estimate D2E/DX2                !
 ! D66   D(26,21,30,31)         58.6483         estimate D2E/DX2                !
 ! D67   D(26,21,30,32)        178.6871         estimate D2E/DX2                !
 ! D68   D(26,21,30,33)        -61.1938         estimate D2E/DX2                !
 --------------------------------------------------------------------------------
 Trust Radius=3.00D-01 FncErr=1.00D-07 GrdErr=1.00D-06 EigMax=2.50D+02 EigMin=1.00D-04
 Number of steps in this run=    167 maximum allowed number of steps=    198.
 GradGradGradGradGradGradGradGradGradGradGradGradGradGradGradGradGradGrad

 Leave Link  103 at Fri Mar 12 22:56:40 2021, MaxMem=  2684354560 cpu:               0.1 elap:               0.0
 (Enter /opt/g16avx/l202.exe)
                          Input orientation:                          
 ---------------------------------------------------------------------
 Center     Atomic      Atomic             Coordinates (Angstroms)
 Number     Number       Type             X           Y           Z
 ---------------------------------------------------------------------
      1          6           0       -1.708676    0.519186    0.154514
      2          8           0       -2.224648    0.427833    1.253081
      3          8           0       -2.313681   -0.146875   -0.966616
      4          6           0       -3.509433   -0.740813   -0.800818
      5          8           0       -3.666634   -1.916445   -1.013719
      6          8           0       -1.074488    1.608511   -0.338033
      7          8           0       -4.428938    0.137688   -0.466151
      8          6           0       -5.787714   -0.260112   -0.099700
      9          6           0       -6.429341    1.058344    0.299582
     10          1           0       -5.899889    1.503371    1.154452
     11          1           0       -6.400916    1.769903   -0.538455
     12          1           0       -7.478236    0.894442    0.583758
     13          6           0       -5.733946   -1.216695    1.082449
     14          1           0       -5.281489   -2.175861    0.800739
     15          1           0       -5.148007   -0.772937    1.900381
     16          1           0       -6.754145   -1.404681    1.446525
     17          6           0       -6.488780   -0.862684   -1.307891
     18          1           0       -6.469821   -0.157604   -2.152267
     19          1           0       -6.010521   -1.801109   -1.614657
     20          1           0       -7.539261   -1.067878   -1.055697
     21          6           0       -1.380613    2.940223    0.159195
     22          6           0       -2.873853    3.208632    0.023996
     23          1           0       -3.196157    3.064783   -1.017762
     24          1           0       -3.454172    2.530447    0.662439
     25          1           0       -3.094238    4.245861    0.316098
     26          6           0       -0.907529    3.110514    1.597341
     27          1           0       -1.439875    2.423324    2.265743
     28          1           0        0.172487    2.917824    1.675694
     29          1           0       -1.092571    4.144555    1.924268
     30          6           0       -0.584053    3.840756   -0.771984
     31          1           0        0.489117    3.606754   -0.706455
     32          1           0       -0.908659    3.701627   -1.813503
     33          1           0       -0.728116    4.895435   -0.496946
 ---------------------------------------------------------------------
                    Distance matrix (angstroms):
                    1          2          3          4          5
     1  C    0.000000
     2  O    1.217137   0.000000
     3  O    1.437568   2.294618   0.000000
     4  C    2.396452   2.689778   1.345390   0.000000
     5  O    3.336265   3.565578   2.228021   1.205052   0.000000
     6  O    1.353302   2.290963   2.238771   3.415033   4.427312
     7  O    2.816131   2.810487   2.192203   1.315012   2.258407
     8  C    4.160587   3.872819   3.582356   2.431708   2.842156
     9  C    4.753569   4.357310   4.471517   3.601903   4.266929
    10  H    4.419815   3.830653   4.481420   3.817555   4.624233
    11  H    4.905264   4.738351   4.534628   3.838385   4.614254
    12  H    5.797662   5.316569   5.491869   4.510267   4.998132
    13  C    4.480753   3.879273   4.128122   2.953238   3.026111
    14  H    4.521712   4.040806   4.006022   2.786491   2.442808
    15  H    4.067755   3.225969   4.079832   3.159499   3.463243
    16  H    5.552235   4.889977   5.207979   4.002428   3.980883
    17  C    5.186288   5.138758   4.249741   3.024646   3.026790
    18  H    5.333647   5.473630   4.321965   3.306122   3.499667
    19  H    5.198039   5.246421   4.101594   2.835843   2.422444
    20  H    6.162719   5.984373   5.306870   4.051105   3.964728
    21  C    2.443167   2.867243   3.415881   4.359303   5.494437
    22  C    2.933904   3.108852   3.543238   4.084409   5.288834
    23  H    3.172837   3.613041   3.331085   3.824626   5.003399
    24  H    2.711073   2.506307   3.335055   3.584036   4.757047
    25  H    3.979196   4.026346   4.642279   5.127066   6.330092
    26  C    3.072225   3.008338   4.377410   5.230085   6.300842
    27  H    2.855746   2.371358   4.221090   4.868124   5.877663
    28  H    3.406791   3.482085   4.749233   5.751110   6.733643
    29  H    4.081043   3.942856   5.316455   6.093778   7.210637
    30  C    3.627120   4.294238   4.350942   5.435941   6.534991
    31  H    3.886469   4.616258   4.691811   5.907508   6.918844
    32  H    3.826362   4.674772   4.183572   5.246411   6.309423
    33  H    4.531827   5.026099   5.306552   6.292484   7.436642
                    6          7          8          9         10
     6  O    0.000000
     7  O    3.664979   0.000000
     8  C    5.075732   1.462465   0.000000
     9  C    5.420672   2.331430   1.519683   0.000000
    10  H    5.052035   2.579756   2.166876   1.099623   0.000000
    11  H    5.332640   2.560869   2.165522   1.099741   1.785498
    12  H    6.509038   3.312583   2.158234   1.099000   1.785403
    13  C    5.631173   2.436301   1.521650   2.504448   2.726074
    14  H    5.772099   2.772068   2.176499   3.468257   3.747570
    15  H    5.222581   2.635673   2.161606   2.749175   2.510640
    16  H    6.672517   3.382871   2.152868   2.736324   3.044967
    17  C    6.030090   2.439717   1.521286   2.505564   3.465277
    18  H    5.959885   2.663717   2.165366   2.737103   3.744069
    19  H    6.133490   2.753072   2.172420   3.466438   4.312748
    20  H    7.033590   3.387486   2.152750   2.754909   3.766115
    21  C    1.454099   4.187785   5.452679   5.389882   4.845507
    22  C    2.434988   3.476957   4.531895   4.164274   3.652772
    23  H    2.661623   3.223648   4.314387   4.026745   3.803510
    24  H    2.741132   2.819429   3.716651   3.339219   2.697868
    25  H    3.385689   4.389809   5.266070   4.613399   4.011953
    26  C    2.455516   5.049358   6.169058   6.032080   5.263337
    27  H    2.752649   4.649933   5.630262   5.533871   4.687537
    28  H    2.706352   5.787034   6.983931   6.995390   6.256686
    29  H    3.398507   5.735890   6.748474   6.375376   5.538842
    30  C    2.326318   5.346904   6.659367   6.561819   6.118222
    31  H    2.563898   6.023241   7.397257   7.441207   6.979011
    32  H    2.566251   5.187425   6.514420   6.475338   6.209144
    33  H    3.308942   6.027702   7.234432   6.918214   6.401597
                   11         12         13         14         15
    11  H    0.000000
    12  H    1.785052   0.000000
    13  C    3.462939   2.783548   0.000000
    14  H    4.314581   3.781473   1.097305   0.000000
    15  H    3.739484   3.153350   1.099663   1.787519   0.000000
    16  H    3.760705   2.560203   1.099407   1.783388   1.784591
    17  C    2.744133   2.764932   2.531565   2.761939   3.478324
    18  H    2.514840   3.099925   3.482323   3.769050   4.306946
    19  H    3.750033   3.775343   2.773520   2.550699   3.762520
    20  H    3.101027   2.557780   2.802316   3.125942   3.813592
    21  C    5.201904   6.445656   6.089653   6.465503   5.568891
    22  C    3.850515   5.183546   5.374381   5.949185   4.954340
    23  H    3.489546   5.060775   5.402066   5.926205   5.201286
    24  H    3.271678   4.344628   4.406229   5.050500   3.913301
    25  H    4.218382   5.524771   6.115135   6.801284   5.649447
    26  C    6.044515   7.008032   6.502627   6.907377   5.758010
    27  H    5.736063   6.452004   5.752301   6.169014   4.909156
    28  H    7.030633   7.988740   7.234096   7.513789   6.479186
    29  H    6.315260   7.289507   7.141010   7.665312   6.374077
    30  C    6.178905   7.618961   7.452391   7.793526   7.018360
    31  H    7.132657   8.514693   8.074178   8.307236   7.599635
    32  H    5.960050   7.535681   7.473943   7.778224   7.196300
    33  H    6.476985   7.920858   8.056734   8.510019   7.577140
                   16         17         18         19         20
    16  H    0.000000
    17  C    2.819749   0.000000
    18  H    3.819338   1.100213   0.000000
    19  H    3.175054   1.097032   1.789159   0.000000
    20  H    2.644042   1.099644   1.781787   1.785248   0.000000
    21  C    7.029243   6.535122   6.390573   6.860235   7.447804
    22  C    6.193780   5.605108   5.385040   6.133627   6.420304
    23  H    6.221583   5.133278   4.731570   5.652772   5.995238
    24  H    5.195175   4.960281   4.923650   5.521093   5.708580
    25  H    6.826522   6.344879   6.072717   6.985583   7.062285
    26  C    7.388684   7.441575   7.461853   7.776985   8.275110
    27  H    6.600470   7.004295   7.174981   7.334449   7.773221
    28  H    8.167913   8.219884   8.260254   8.445373   9.100405
    29  H    7.942020   8.039799   8.002595   8.488883   8.809623
    30  C    8.396811   7.568048   7.248057   7.873201   8.517635
    31  H    9.067229   8.308348   8.042859   8.503829   9.296720
    32  H    8.418543   7.226779   6.777533   7.506573   8.202886
    33  H    8.932053   8.185280   7.825629   8.602138   9.070006
                   21         22         23         24         25
    21  C    0.000000
    22  C    1.523183   0.000000
    23  H    2.167243   1.099924   0.000000
    24  H    2.172744   1.097413   1.781898   0.000000
    25  H    2.160051   1.099881   1.784521   1.786659   0.000000
    26  C    1.523506   2.520213   3.475439   2.774150   2.777101
    27  H    2.169848   2.774605   3.778545   2.576713   3.140012
    28  H    2.170804   3.477479   4.315561   3.785420   3.779375
    29  H    2.156123   2.767662   3.774457   3.126454   2.569658
    30  C    1.520711   2.505264   2.735988   3.465842   2.765694
    31  H    2.165526   3.464336   3.737899   4.310665   3.780808
    32  H    2.166567   2.735221   2.504281   3.739196   3.099701
    33  H    2.163129   2.778646   3.116691   3.790610   2.584864
                   26         27         28         29         30
    26  C    0.000000
    27  H    1.096533   0.000000
    28  H    1.099865   1.786729   0.000000
    29  H    1.100165   1.788816   1.779615   0.000000
    30  C    2.500318   3.459672   2.723102   2.760554   0.000000
    31  H    2.739407   3.735703   2.499903   3.116355   1.100339
    32  H    3.461686   4.307725   3.736003   3.768414   1.099767
    33  H    2.757566   3.774968   3.072848   2.561040   1.099431
                   31         32         33
    31  H    0.000000
    32  H    1.785591   0.000000
    33  H    1.785007   1.786364   0.000000
 Stoichiometry    C10H18O5
 Framework group  C1[X(C10H18O5)]
 Deg. of freedom    93
 Full point group                 C1      NOp   1
 Largest Abelian subgroup         C1      NOp   1
 Largest concise Abelian subgroup C1      NOp   1
                         Standard orientation:                         
 ---------------------------------------------------------------------
 Center     Atomic      Atomic             Coordinates (Angstroms)
 Number     Number       Type             X           Y           Z
 ---------------------------------------------------------------------
      1          6           0        1.073327   -1.189027    0.438734
      2          8           0        0.711410   -0.654817    1.470750
      3          8           0        0.090287   -1.589191   -0.530855
      4          6           0       -1.194122   -1.239739   -0.335274
      5          8           0       -2.069445   -2.064473   -0.259297
      6          8           0        2.203418   -0.905320   -0.249620
      7          8           0       -1.329154    0.068249   -0.321486
      8          6           0       -2.599984    0.715428    0.002479
      9          6           0       -2.238839    2.191552   -0.005855
     10          1           0       -1.475702    2.407737    0.755760
     11          1           0       -1.844787    2.486108   -0.989415
     12          1           0       -3.130232    2.797250    0.209432
     13          6           0       -3.053554    0.276198    1.386953
     14          1           0       -3.326632   -0.786503    1.400096
     15          1           0       -2.250602    0.446795    2.118680
     16          1           0       -3.930802    0.866547    1.687983
     17          6           0       -3.625413    0.399933   -1.076071
     18          1           0       -3.243305    0.693994   -2.065005
     19          1           0       -3.867688   -0.669923   -1.089830
     20          1           0       -4.546627    0.967968   -0.881342
     21          6           0        2.841605    0.396218   -0.135076
     22          6           0        1.839346    1.491747   -0.474753
     23          1           0        1.408926    1.321243   -1.472500
     24          1           0        1.020718    1.515351    0.255730
     25          1           0        2.342141    2.469977   -0.475487
     26          6           0        3.439945    0.593137    1.252109
     27          1           0        2.655502    0.587786    2.018272
     28          1           0        4.164063   -0.203110    1.478709
     29          1           0        3.971188    1.555829    1.289077
     30          6           0        3.941532    0.327423   -1.182926
     31          1           0        4.633402   -0.498342   -0.958928
     32          1           0        3.512298    0.161903   -2.181850
     33          1           0        4.512956    1.266581   -1.197235
 ---------------------------------------------------------------------
 Rotational constants (GHZ):           1.1020325           0.3498055           0.3179215
 Leave Link  202 at Fri Mar 12 22:56:41 2021, MaxMem=  2684354560 cpu:               0.1 elap:               0.0
 (Enter /opt/g16avx/l301.exe)
 Standard basis: def2SVP (5D, 7F)
 Ernie: Thresh=  0.10000D-02 Tol=  0.10000D-05 Strict=F.
 There are   315 symmetry adapted cartesian basis functions of A   symmetry.
 There are   300 symmetry adapted basis functions of A   symmetry.
   300 basis functions,   501 primitive gaussians,   315 cartesian basis functions
    59 alpha electrons       59 beta electrons
       nuclear repulsion energy      1135.9014530829 Hartrees.
 IExCor= 1009 DFT=T Ex+Corr=PBE1PBE ExCW=0 ScaHFX=  0.250000
 ScaDFX=  0.750000  0.750000  1.000000  1.000000 ScalE2=  1.000000  1.000000
 IRadAn=      5 IRanWt=     -1 IRanGd=            0 ICorTp=0 IEmpDi=141
 NAtoms=   33 NActive=   33 NUniq=   33 SFac= 1.00D+00 NAtFMM=   60 NAOKFM=F Big=F
 Integral buffers will be    131072 words long.
 Raffenetti 2 integral format.
 Two-electron integral symmetry is turned on.
 R6Disp:  Grimme-D3(BJ) Dispersion energy=       -0.0298494992 Hartrees.
 Nuclear repulsion after empirical dispersion term =     1135.8716035836 Hartrees.
 ------------------------------------------------------------------------------
 Polarizable Continuum Model (PCM)
 =================================
 Model                : PCM.
 Atomic radii         : SMD-Coulomb.
 Polarization charges : Total charges.
 Charge compensation  : None.
 Solution method      : On-the-fly selection.
 Cavity type          : VdW (van der Waals Surface) (Alpha=1.000).
 Cavity algorithm     : GePol (No added spheres)
                        Default sphere list used, NSphG=   33.
                        Lebedev-Laikov grids with approx.  5.0 points / Ang**2.
                        Smoothing algorithm: York/Karplus (Gamma=1.0000).
                        Polarization charges: spherical gaussians, with
                                              point-specific exponents (IZeta= 3).
                        Self-potential: point-specific (ISelfS= 7).
                        Self-field    : sphere-specific E.n sum rule (ISelfD= 2).
 1st derivatives      : Analytical E(r).r(x)/FMM algorithm (CHGder, D1EAlg=3).
                        Cavity 1st derivative terms included.
 Solvent              : Benzene, Eps=   2.270600 Eps(inf)=   2.253301
 ------------------------------------------------------------------------------
 GePol: Number of generator spheres                  =      33
 GePol: Total number of spheres                      =      33
 GePol: Number of exposed spheres                    =      33 (100.00%)
 GePol: Number of points                             =    2290
 GePol: Average weight of points                     =       0.12
 GePol: Minimum weight of points                     =   0.15D-08
 GePol: Maximum weight of points                     =    0.17992
 GePol: Number of points with low weight             =     115
 GePol: Fraction of low-weight points (<1% of avg)   =       5.02%
 GePol: Cavity surface area                          =    271.947 Ang**2
 GePol: Cavity volume                                =    283.306 Ang**3
 ------------------------------------------------------------------------------
 Atomic radii for non-electrostatic terms: SMD-CDS.
 ------------------------------------------------------------------------------
 PCM non-electrostatic energy =        -0.0057669068 Hartrees.
 Nuclear repulsion after PCM non-electrostatic terms =     1135.8658366768 Hartrees.
 Leave Link  301 at Fri Mar 12 22:56:41 2021, MaxMem=  2684354560 cpu:               1.1 elap:               0.1
 (Enter /opt/g16avx/l302.exe)
 NPDir=0 NMtPBC=     1 NCelOv=     1 NCel=       1 NClECP=     1 NCelD=      1
         NCelK=      1 NCelE2=     1 NClLst=     1 CellRange=     0.0.
 One-electron integrals computed using PRISM.
 One-electron integral symmetry used in STVInt
   1 Symmetry operations used in ECPInt.
 ECPInt:  NShTT=   10440 NPrTT=   36834 LenC2=    9802 LenP2D=   25120.
 LDataN:  DoStor=T MaxTD1= 4 Len=   56
 NBasis=   300 RedAO= T EigKep=  1.60D-03  NBF=   300
 NBsUse=   300 1.00D-06 EigRej= -1.00D+00 NBFU=   300
 Precomputing XC quadrature grid using
 IXCGrd= 4 IRadAn=           5 IRanWt=          -1 IRanGd=           0 AccXCQ= 0.00D+00.
 Generated NRdTot=       0 NPtTot=           0 NUsed=           0 NTot=          32
 NSgBfM=   314   314   314   314   314 MxSgAt=    33 MxSgA2=    33.
 Leave Link  302 at Fri Mar 12 22:56:41 2021, MaxMem=  2684354560 cpu:               5.7 elap:               0.6
 (Enter /opt/g16avx/l303.exe)
 DipDrv:  MaxL=1.
 Leave Link  303 at Fri Mar 12 22:56:41 2021, MaxMem=  2684354560 cpu:               0.5 elap:               0.1
 (Enter /opt/g16avx/l401.exe)
 ExpMin= 1.22D-01 ExpMax= 2.27D+03 ExpMxC= 3.41D+02 IAcc=3 IRadAn=         5 AccDes= 0.00D+00
 Harris functional with IExCor= 1009 and IRadAn=       5 diagonalized for initial guess.
 HarFok:  IExCor= 1009 AccDes= 0.00D+00 IRadAn=         5 IDoV= 1 UseB2=F ITyADJ=14
 ICtDFT=  3500011 ScaDFX=  1.000000  1.000000  1.000000  1.000000
 FoFCou: FMM=F IPFlag=           0 FMFlag=      100000 FMFlg1=           0
         NFxFlg=           0 DoJE=T BraDBF=F KetDBF=T FulRan=T
         wScrn=  0.000000 ICntrl=       500 IOpCl=  0 I1Cent=   200000004 NGrid=           0
         NMat0=    1 NMatS0=      1 NMatT0=    0 NMatD0=    1 NMtDS0=    0 NMtDT0=    0
 Petite list used in FoFCou.
 Harris En= -766.908892166104    
 JPrj=0 DoOrth=F DoCkMO=F.
 Leave Link  401 at Fri Mar 12 22:56:44 2021, MaxMem=  2684354560 cpu:              26.9 elap:               2.7
 (Enter /opt/g16avx/l502.exe)
 Integral symmetry usage will be decided dynamically.
 Closed shell SCF:
 Using DIIS extrapolation, IDIIS=  1040.
 NGot=  2684354560 LenX=  2684149431 LenY=  2684049765
 Requested convergence on RMS density matrix=1.00D-08 within 128 cycles.
 Requested convergence on MAX density matrix=1.00D-06.
 Requested convergence on             energy=1.00D-06.
 No special actions if energy rises.
 Fock matrices will be formed incrementally for  20 cycles.

 Cycle   1  Pass 1  IDiag  1:
 FoFJK:  IHMeth= 1 ICntrl=       0 DoSepK=F KAlg= 0 I1Cent=           0 FoldK=F
 IRaf= 880000000 NMat=       1 IRICut=       1 DoRegI=T DoRafI=F ISym2E= 0 IDoP0=0 IntGTp=1.
 FoFCou: FMM=F IPFlag=           0 FMFlag=      100000 FMFlg1=           0
         NFxFlg=           0 DoJE=F BraDBF=F KetDBF=F FulRan=T
         wScrn=  0.000000 ICntrl=         0 IOpCl=  0 I1Cent=           0 NGrid=           0
         NMat0=    1 NMatS0=      1 NMatT0=    0 NMatD0=    1 NMtDS0=    0 NMtDT0=    0
 Symmetry not used in FoFCou.
 Inv3:  Mode=1 IEnd=    15732300.
 Iteration    1 A*A^-1 deviation from unit magnitude is 3.66D-15 for     92.
 Iteration    1 A*A^-1 deviation from orthogonality  is 1.85D-15 for   1405     71.
 Iteration    1 A^-1*A deviation from unit magnitude is 3.89D-15 for     92.
 Iteration    1 A^-1*A deviation from orthogonality  is 1.89D-15 for   1206    376.
 E= -766.180498486581    
 DIIS: error= 2.36D-02 at cycle   1 NSaved=   1.
 NSaved= 1 IEnMin= 1 EnMin= -766.180498486581     IErMin= 1 ErrMin= 2.36D-02
 ErrMax= 2.36D-02  0.00D+00 EMaxC= 1.00D-01 BMatC= 5.17D-01 BMatP= 5.17D-01
 IDIUse=3 WtCom= 7.64D-01 WtEn= 2.36D-01
 Coeff-Com:  0.100D+01
 Coeff-En:   0.100D+01
 Coeff:      0.100D+01
 Gap=     0.160 Goal=   None    Shift=    0.000
 GapD=    0.160 DampG=1.000 DampE=0.500 DampFc=0.5000 IDamp=-1.
 Damping current iteration by 5.00D-01
 RMSDP=4.79D-03 MaxDP=2.00D-01              OVMax= 2.14D-01

 Cycle   2  Pass 1  IDiag  1:
 RMSU=  2.37D-03    CP:  9.83D-01
 E= -766.332741447904     Delta-E=       -0.152242961323 Rises=F Damp=T
 DIIS: error= 1.22D-02 at cycle   2 NSaved=   2.
 NSaved= 2 IEnMin= 2 EnMin= -766.332741447904     IErMin= 2 ErrMin= 1.22D-02
 ErrMax= 1.22D-02  0.00D+00 EMaxC= 1.00D-01 BMatC= 6.46D-02 BMatP= 5.17D-01
 IDIUse=3 WtCom= 8.78D-01 WtEn= 1.22D-01
 Coeff-Com:  0.195D+00 0.805D+00
 Coeff-En:   0.303D+00 0.697D+00
 Coeff:      0.208D+00 0.792D+00
 Gap=     0.236 Goal=   None    Shift=    0.000
 RMSDP=1.39D-03 MaxDP=6.81D-02 DE=-1.52D-01 OVMax= 1.42D-01

 Cycle   3  Pass 1  IDiag  1:
 RMSU=  1.32D-03    CP:  9.79D-01  8.14D-01
 E= -766.598263477121     Delta-E=       -0.265522029217 Rises=F Damp=F
 DIIS: error= 1.37D-02 at cycle   3 NSaved=   3.
 NSaved= 3 IEnMin= 3 EnMin= -766.598263477121     IErMin= 2 ErrMin= 1.22D-02
 ErrMax= 1.37D-02  0.00D+00 EMaxC= 1.00D-01 BMatC= 7.26D-02 BMatP= 6.46D-02
 IDIUse=2 WtCom= 0.00D+00 WtEn= 1.00D+00
 Coeff-En:   0.000D+00 0.000D+00 0.100D+01
 Coeff:      0.000D+00 0.000D+00 0.100D+01
 Gap=     0.266 Goal=   None    Shift=    0.000
 RMSDP=2.14D-03 MaxDP=1.23D-01 DE=-2.66D-01 OVMax= 2.34D-01

 Cycle   4  Pass 1  IDiag  1:
 RMSU=  1.12D-03    CP:  9.85D-01  1.07D+00 -3.07D-01
 E= -766.386371693143     Delta-E=        0.211891783978 Rises=F Damp=F
 DIIS: error= 3.10D-02 at cycle   4 NSaved=   4.
 NSaved= 4 IEnMin= 3 EnMin= -766.598263477121     IErMin= 2 ErrMin= 1.22D-02
 ErrMax= 3.10D-02  0.00D+00 EMaxC= 1.00D-01 BMatC= 3.49D-01 BMatP= 6.46D-02
 IDIUse=2 WtCom= 0.00D+00 WtEn= 1.00D+00
 Coeff-En:   0.000D+00 0.000D+00 0.771D+00 0.229D+00
 Coeff:      0.000D+00 0.000D+00 0.771D+00 0.229D+00
 Gap=     0.231 Goal=   None    Shift=    0.000
 RMSDP=1.12D-03 MaxDP=6.81D-02 DE= 2.12D-01 OVMax= 8.26D-02

 Cycle   5  Pass 1  IDiag  1:
 RMSU=  1.54D-04    CP:  9.84D-01  8.62D-01  3.39D-01  5.35D-01
 E= -766.642256479434     Delta-E=       -0.255884786291 Rises=F Damp=F
 DIIS: error= 7.19D-03 at cycle   5 NSaved=   5.
 NSaved= 5 IEnMin= 5 EnMin= -766.642256479434     IErMin= 5 ErrMin= 7.19D-03
 ErrMax= 7.19D-03  0.00D+00 EMaxC= 1.00D-01 BMatC= 1.98D-02 BMatP= 6.46D-02
 IDIUse=3 WtCom= 9.28D-01 WtEn= 7.19D-02
 Coeff-Com: -0.978D-02 0.284D-01 0.304D+00-0.446D-01 0.722D+00
 Coeff-En:   0.000D+00 0.000D+00 0.251D+00 0.000D+00 0.749D+00
 Coeff:     -0.908D-02 0.264D-01 0.300D+00-0.414D-01 0.724D+00
 Gap=     0.244 Goal=   None    Shift=    0.000
 RMSDP=3.74D-04 MaxDP=1.89D-02 DE=-2.56D-01 OVMax= 2.33D-02

 Cycle   6  Pass 1  IDiag  1:
 RMSU=  7.34D-05    CP:  9.82D-01  8.46D-01  5.65D-01  3.52D-01  7.62D-01
 E= -766.658072975771     Delta-E=       -0.015816496338 Rises=F Damp=F
 DIIS: error= 8.25D-04 at cycle   6 NSaved=   6.
 NSaved= 6 IEnMin= 6 EnMin= -766.658072975771     IErMin= 6 ErrMin= 8.25D-04
 ErrMax= 8.25D-04  0.00D+00 EMaxC= 1.00D-01 BMatC= 2.66D-04 BMatP= 1.98D-02
 IDIUse=3 WtCom= 9.92D-01 WtEn= 8.25D-03
 Coeff-Com: -0.110D-01 0.221D-01 0.143D+00-0.573D-01 0.487D+00 0.416D+00
 Coeff-En:   0.000D+00 0.000D+00 0.000D+00 0.000D+00 0.000D+00 0.100D+01
 Coeff:     -0.109D-01 0.220D-01 0.142D+00-0.569D-01 0.483D+00 0.420D+00
 Gap=     0.241 Goal=   None    Shift=    0.000
 RMSDP=4.34D-05 MaxDP=3.28D-03 DE=-1.58D-02 OVMax= 3.30D-03

 Cycle   7  Pass 1  IDiag  1:
 RMSU=  1.85D-05    CP:  9.82D-01  8.48D-01  5.59D-01  3.58D-01  8.45D-01
                    CP:  5.19D-01
 E= -766.658272066556     Delta-E=       -0.000199090784 Rises=F Damp=F
 DIIS: error= 1.11D-04 at cycle   7 NSaved=   7.
 NSaved= 7 IEnMin= 7 EnMin= -766.658272066556     IErMin= 7 ErrMin= 1.11D-04
 ErrMax= 1.11D-04  0.00D+00 EMaxC= 1.00D-01 BMatC= 5.75D-06 BMatP= 2.66D-04
 IDIUse=3 WtCom= 9.99D-01 WtEn= 1.11D-03
 Coeff-Com: -0.483D-02 0.962D-02 0.454D-01-0.264D-01 0.183D+00 0.195D+00
 Coeff-Com:  0.599D+00
 Coeff-En:   0.000D+00 0.000D+00 0.000D+00 0.000D+00 0.000D+00 0.000D+00
 Coeff-En:   0.100D+01
 Coeff:     -0.482D-02 0.961D-02 0.453D-01-0.264D-01 0.182D+00 0.195D+00
 Coeff:      0.599D+00
 Gap=     0.241 Goal=   None    Shift=    0.000
 RMSDP=7.78D-06 MaxDP=4.34D-04 DE=-1.99D-04 OVMax= 5.05D-04

 Cycle   8  Pass 1  IDiag  1:
 RMSU=  5.54D-06    CP:  9.82D-01  8.48D-01  5.61D-01  3.57D-01  8.50D-01
                    CP:  5.32D-01  7.47D-01
 E= -766.658276287773     Delta-E=       -0.000004221217 Rises=F Damp=F
 DIIS: error= 2.78D-05 at cycle   8 NSaved=   8.
 NSaved= 8 IEnMin= 8 EnMin= -766.658276287773     IErMin= 8 ErrMin= 2.78D-05
 ErrMax= 2.78D-05  0.00D+00 EMaxC= 1.00D-01 BMatC= 4.06D-07 BMatP= 5.75D-06
 IDIUse=1 WtCom= 1.00D+00 WtEn= 0.00D+00
 Coeff-Com: -0.100D-02 0.143D-02 0.773D-02-0.507D-02 0.327D-01 0.430D-01
 Coeff-Com:  0.257D+00 0.664D+00
 Coeff:     -0.100D-02 0.143D-02 0.773D-02-0.507D-02 0.327D-01 0.430D-01
 Coeff:      0.257D+00 0.664D+00
 Gap=     0.241 Goal=   None    Shift=    0.000
 RMSDP=2.42D-06 MaxDP=1.14D-04 DE=-4.22D-06 OVMax= 1.28D-04

 Cycle   9  Pass 1  IDiag  1:
 RMSU=  1.67D-06    CP:  9.82D-01  8.48D-01  5.61D-01  3.57D-01  8.50D-01
                    CP:  5.34D-01  7.95D-01  7.69D-01
 E= -766.658276588706     Delta-E=       -0.000000300932 Rises=F Damp=F
 DIIS: error= 1.04D-05 at cycle   9 NSaved=   9.
 NSaved= 9 IEnMin= 9 EnMin= -766.658276588706     IErMin= 9 ErrMin= 1.04D-05
 ErrMax= 1.04D-05  0.00D+00 EMaxC= 1.00D-01 BMatC= 6.91D-08 BMatP= 4.06D-07
 IDIUse=1 WtCom= 1.00D+00 WtEn= 0.00D+00
 Coeff-Com: -0.238D-03 0.944D-04 0.135D-02-0.979D-03 0.588D-02 0.108D-01
 Coeff-Com:  0.961D-01 0.367D+00 0.520D+00
 Coeff:     -0.238D-03 0.944D-04 0.135D-02-0.979D-03 0.588D-02 0.108D-01
 Coeff:      0.961D-01 0.367D+00 0.520D+00
 Gap=     0.241 Goal=   None    Shift=    0.000
 RMSDP=7.89D-07 MaxDP=5.14D-05 DE=-3.01D-07 OVMax= 4.41D-05

 Cycle  10  Pass 1  IDiag  1:
 RMSU=  5.36D-07    CP:  9.82D-01  8.48D-01  5.61D-01  3.57D-01  8.50D-01
                    CP:  5.35D-01  8.00D-01  8.13D-01  6.99D-01
 E= -766.658276638345     Delta-E=       -0.000000049640 Rises=F Damp=F
 DIIS: error= 2.62D-06 at cycle  10 NSaved=  10.
 NSaved=10 IEnMin=10 EnMin= -766.658276638345     IErMin=10 ErrMin= 2.62D-06
 ErrMax= 2.62D-06  0.00D+00 EMaxC= 1.00D-01 BMatC= 4.90D-09 BMatP= 6.91D-08
 IDIUse=1 WtCom= 1.00D+00 WtEn= 0.00D+00
 Coeff-Com:  0.158D-04-0.715D-04-0.600D-03 0.136D-03-0.175D-02-0.848D-03
 Coeff-Com:  0.363D-02 0.648D-01 0.231D+00 0.703D+00
 Coeff:      0.158D-04-0.715D-04-0.600D-03 0.136D-03-0.175D-02-0.848D-03
 Coeff:      0.363D-02 0.648D-01 0.231D+00 0.703D+00
 Gap=     0.241 Goal=   None    Shift=    0.000
 RMSDP=2.34D-07 MaxDP=1.39D-05 DE=-4.96D-08 OVMax= 1.71D-05

 Cycle  11  Pass 1  IDiag  1:
 RMSU=  1.63D-07    CP:  9.82D-01  8.48D-01  5.61D-01  3.57D-01  8.51D-01
                    CP:  5.36D-01  8.02D-01  8.29D-01  7.48D-01  8.27D-01
 E= -766.658276642282     Delta-E=       -0.000000003936 Rises=F Damp=F
 DIIS: error= 4.90D-07 at cycle  11 NSaved=  11.
 NSaved=11 IEnMin=11 EnMin= -766.658276642282     IErMin=11 ErrMin= 4.90D-07
 ErrMax= 4.90D-07  0.00D+00 EMaxC= 1.00D-01 BMatC= 1.53D-10 BMatP= 4.90D-09
 IDIUse=1 WtCom= 1.00D+00 WtEn= 0.00D+00
 Coeff-Com:  0.215D-04-0.265D-04-0.331D-03 0.111D-03-0.105D-02-0.102D-02
 Coeff-Com: -0.585D-02-0.375D-02 0.396D-01 0.217D+00 0.756D+00
 Coeff:      0.215D-04-0.265D-04-0.331D-03 0.111D-03-0.105D-02-0.102D-02
 Coeff:     -0.585D-02-0.375D-02 0.396D-01 0.217D+00 0.756D+00
 Gap=     0.241 Goal=   None    Shift=    0.000
 RMSDP=6.68D-08 MaxDP=2.39D-06 DE=-3.94D-09 OVMax= 4.30D-06

 Cycle  12  Pass 1  IDiag  1:
 RMSU=  3.80D-08    CP:  9.82D-01  8.48D-01  5.61D-01  3.57D-01  8.51D-01
                    CP:  5.36D-01  8.02D-01  8.29D-01  7.67D-01  8.88D-01
                    CP:  8.75D-01
 E= -766.658276642446     Delta-E=       -0.000000000164 Rises=F Damp=F
 DIIS: error= 1.23D-07 at cycle  12 NSaved=  12.
 NSaved=12 IEnMin=12 EnMin= -766.658276642446     IErMin=12 ErrMin= 1.23D-07
 ErrMax= 1.23D-07  0.00D+00 EMaxC= 1.00D-01 BMatC= 1.16D-11 BMatP= 1.53D-10
 IDIUse=1 WtCom= 1.00D+00 WtEn= 0.00D+00
 Coeff-Com:  0.276D-05-0.258D-05-0.249D-04 0.141D-04-0.876D-04-0.898D-04
 Coeff-Com: -0.134D-02-0.436D-02-0.423D-02 0.132D-01 0.216D+00 0.781D+00
 Coeff:      0.276D-05-0.258D-05-0.249D-04 0.141D-04-0.876D-04-0.898D-04
 Coeff:     -0.134D-02-0.436D-02-0.423D-02 0.132D-01 0.216D+00 0.781D+00
 Gap=     0.241 Goal=   None    Shift=    0.000
 RMSDP=1.76D-08 MaxDP=8.86D-07 DE=-1.64D-10 OVMax= 1.86D-06

 Cycle  13  Pass 1  IDiag  1:
 RMSU=  1.32D-08    CP:  9.82D-01  8.48D-01  5.61D-01  3.57D-01  8.51D-01
                    CP:  5.36D-01  8.02D-01  8.29D-01  7.68D-01  8.94D-01
                    CP:  9.31D-01  9.73D-01
 E= -766.658276642455     Delta-E=       -0.000000000009 Rises=F Damp=F
 DIIS: error= 6.71D-08 at cycle  13 NSaved=  13.
 NSaved=13 IEnMin=13 EnMin= -766.658276642455     IErMin=13 ErrMin= 6.71D-08
 ErrMax= 6.71D-08  0.00D+00 EMaxC= 1.00D-01 BMatC= 2.84D-12 BMatP= 1.16D-11
 IDIUse=1 WtCom= 1.00D+00 WtEn= 0.00D+00
 Coeff-Com: -0.100D-05 0.183D-05 0.251D-04-0.586D-05 0.753D-04 0.731D-04
 Coeff-Com:  0.100D-04-0.174D-02-0.670D-02-0.175D-01 0.265D-01 0.400D+00
 Coeff-Com:  0.599D+00
 Coeff:     -0.100D-05 0.183D-05 0.251D-04-0.586D-05 0.753D-04 0.731D-04
 Coeff:      0.100D-04-0.174D-02-0.670D-02-0.175D-01 0.265D-01 0.400D+00
 Coeff:      0.599D+00
 Gap=     0.241 Goal=   None    Shift=    0.000
 RMSDP=6.33D-09 MaxDP=3.59D-07 DE=-9.32D-12 OVMax= 5.50D-07

 Error on total polarization charges =  0.02461
 SCF Done:  E(RPBE1PBE) =  -766.658276642     A.U. after   13 cycles
            NFock= 13  Conv=0.63D-08     -V/T= 2.0095
 KE= 7.594548115374D+02 PE=-4.061434812426D+03 EE= 1.399455887570D+03
 SMD-CDS (non-electrostatic) energy       (kcal/mol) =      -3.62
 (included in total energy above)
 Leave Link  502 at Fri Mar 12 22:58:29 2021, MaxMem=  2684354560 cpu:            1048.7 elap:             105.3
 (Enter /opt/g16avx/l601.exe)
 Copying SCF densities to generalized density rwf, IOpCl= 0 IROHF=0.

 **********************************************************************

            Population analysis using the SCF density.

 **********************************************************************

 Orbital symmetries:
       Occupied  (A) (A) (A) (A) (A) (A) (A) (A) (A) (A) (A) (A)
                 (A) (A) (A) (A) (A) (A) (A) (A) (A) (A) (A) (A)
                 (A) (A) (A) (A) (A) (A) (A) (A) (A) (A) (A) (A)
                 (A) (A) (A) (A) (A) (A) (A) (A) (A) (A) (A) (A)
                 (A) (A) (A) (A) (A) (A) (A) (A) (A) (A) (A)
       Virtual   (A) (A) (A) (A) (A) (A) (A) (A) (A) (A) (A) (A)
                 (A) (A) (A) (A) (A) (A) (A) (A) (A) (A) (A) (A)
                 (A) (A) (A) (A) (A) (A) (A) (A) (A) (A) (A) (A)
                 (A) (A) (A) (A) (A) (A) (A) (A) (A) (A) (A) (A)
                 (A) (A) (A) (A) (A) (A) (A) (A) (A) (A) (A) (A)
                 (A) (A) (A) (A) (A) (A) (A) (A) (A) (A) (A) (A)
                 (A) (A) (A) (A) (A) (A) (A) (A) (A) (A) (A) (A)
                 (A) (A) (A) (A) (A) (A) (A) (A) (A) (A) (A) (A)
                 (A) (A) (A) (A) (A) (A) (A) (A) (A) (A) (A) (A)
                 (A) (A) (A) (A) (A) (A) (A) (A) (A) (A) (A) (A)
                 (A) (A) (A) (A) (A) (A) (A) (A) (A) (A) (A) (A)
                 (A) (A) (A) (A) (A) (A) (A) (A) (A) (A) (A) (A)
                 (A) (A) (A) (A) (A) (A) (A) (A) (A) (A) (A) (A)
                 (A) (A) (A) (A) (A) (A) (A) (A) (A) (A) (A) (A)
                 (A) (A) (A) (A) (A) (A) (A) (A) (A) (A) (A) (A)
                 (A) (A) (A) (A) (A) (A) (A) (A) (A) (A) (A) (A)
                 (A) (A) (A) (A) (A) (A) (A) (A) (A) (A) (A) (A)
                 (A) (A) (A) (A) (A) (A) (A) (A) (A) (A) (A) (A)
                 (A) (A) (A) (A) (A) (A) (A) (A) (A) (A) (A) (A)
                 (A) (A) (A) (A) (A) (A) (A) (A) (A) (A) (A) (A)
                 (A)
 The electronic state is 1-A.
 Alpha  occ. eigenvalues --  -19.27235 -19.26217 -19.26112 -19.23283 -19.20174
 Alpha  occ. eigenvalues --  -10.43790 -10.41319 -10.31174 -10.30775 -10.22817
 Alpha  occ. eigenvalues --  -10.22798 -10.22769 -10.22459 -10.22400 -10.22345
 Alpha  occ. eigenvalues --   -1.18619  -1.13640  -1.07065  -1.05716  -1.03948
 Alpha  occ. eigenvalues --   -0.84266  -0.83379  -0.72126  -0.70992  -0.70875
 Alpha  occ. eigenvalues --   -0.70860  -0.70790  -0.65214  -0.61685  -0.53583
 Alpha  occ. eigenvalues --   -0.53049  -0.52613  -0.51765  -0.50223  -0.49395
 Alpha  occ. eigenvalues --   -0.47905  -0.46889  -0.46331  -0.45681  -0.43598
 Alpha  occ. eigenvalues --   -0.43202  -0.41960  -0.40936  -0.40661  -0.40264
 Alpha  occ. eigenvalues --   -0.39153  -0.38054  -0.37813  -0.37679  -0.37387
 Alpha  occ. eigenvalues --   -0.36998  -0.36540  -0.36099  -0.35196  -0.34728
 Alpha  occ. eigenvalues --   -0.32439  -0.32214  -0.31023  -0.29541
 Alpha virt. eigenvalues --   -0.05454   0.03037   0.06239   0.07325   0.09117
 Alpha virt. eigenvalues --    0.10054   0.11170   0.12201   0.12822   0.13435
 Alpha virt. eigenvalues --    0.13862   0.14508   0.14917   0.16096   0.16866
 Alpha virt. eigenvalues --    0.17605   0.17783   0.17976   0.18552   0.19397
 Alpha virt. eigenvalues --    0.19796   0.20530   0.20721   0.21313   0.22116
 Alpha virt. eigenvalues --    0.22866   0.23619   0.24909   0.25887   0.26317
 Alpha virt. eigenvalues --    0.27466   0.32143   0.36490   0.37354   0.39618
 Alpha virt. eigenvalues --    0.40103   0.40763   0.41305   0.42920   0.43606
 Alpha virt. eigenvalues --    0.44834   0.46199   0.47348   0.49385   0.50463
 Alpha virt. eigenvalues --    0.50698   0.53647   0.54454   0.55782   0.56376
 Alpha virt. eigenvalues --    0.57394   0.59393   0.60224   0.61143   0.62027
 Alpha virt. eigenvalues --    0.63443   0.64479   0.64780   0.65288   0.65748
 Alpha virt. eigenvalues --    0.66234   0.66556   0.67497   0.67821   0.68175
 Alpha virt. eigenvalues --    0.68457   0.68885   0.69796   0.70600   0.70825
 Alpha virt. eigenvalues --    0.71403   0.71890   0.71900   0.72661   0.73168
 Alpha virt. eigenvalues --    0.73486   0.74172   0.74595   0.75254   0.75584
 Alpha virt. eigenvalues --    0.76601   0.77170   0.78688   0.83193   0.85395
 Alpha virt. eigenvalues --    0.88168   0.90650   0.92224   0.95725   0.97486
 Alpha virt. eigenvalues --    0.99129   1.02520   1.03293   1.04257   1.05585
 Alpha virt. eigenvalues --    1.10121   1.11265   1.12979   1.13846   1.14095
 Alpha virt. eigenvalues --    1.15643   1.16143   1.18862   1.21097   1.24011
 Alpha virt. eigenvalues --    1.25716   1.28776   1.29952   1.31046   1.32591
 Alpha virt. eigenvalues --    1.34266   1.36899   1.38983   1.40146   1.44982
 Alpha virt. eigenvalues --    1.48408   1.49441   1.51680   1.52811   1.54044
 Alpha virt. eigenvalues --    1.54104   1.54821   1.55012   1.55493   1.55857
 Alpha virt. eigenvalues --    1.57241   1.58222   1.58875   1.59298   1.64243
 Alpha virt. eigenvalues --    1.65976   1.68225   1.68984   1.71336   1.72894
 Alpha virt. eigenvalues --    1.74289   1.74924   1.75483   1.76514   1.77478
 Alpha virt. eigenvalues --    1.77909   1.79263   1.81704   1.82732   1.83397
 Alpha virt. eigenvalues --    1.84086   1.84605   1.84733   1.84847   1.85261
 Alpha virt. eigenvalues --    1.85905   1.86165   1.86844   1.88002   1.88629
 Alpha virt. eigenvalues --    1.89702   1.91538   1.92247   1.92733   1.94413
 Alpha virt. eigenvalues --    1.95789   1.96589   1.96786   1.98460   2.00093
 Alpha virt. eigenvalues --    2.02118   2.02699   2.05764   2.07867   2.09308
 Alpha virt. eigenvalues --    2.12492   2.13164   2.15591   2.16354   2.20778
 Alpha virt. eigenvalues --    2.21441   2.21903   2.22515   2.30515   2.33112
 Alpha virt. eigenvalues --    2.36274   2.37120   2.39842   2.40154   2.41207
 Alpha virt. eigenvalues --    2.41257   2.45621   2.45955   2.48060   2.49118
 Alpha virt. eigenvalues --    2.51473   2.52137   2.56922   2.58106   2.62068
 Alpha virt. eigenvalues --    2.63218   2.64835   2.65064   2.65473   2.65840
 Alpha virt. eigenvalues --    2.66560   2.67832   2.69311   2.72126   2.72581
 Alpha virt. eigenvalues --    2.72872   2.78960   2.81160   2.83018   2.84986
 Alpha virt. eigenvalues --    2.86428   2.88748   2.89868   2.91638   2.91817
 Alpha virt. eigenvalues --    2.93033   2.93752   2.94999   2.95441   2.96884
 Alpha virt. eigenvalues --    2.97583   2.97843   2.98270   2.99204   3.04755
 Alpha virt. eigenvalues --    3.06284   3.07388   3.10449   3.11312   3.12905
 Alpha virt. eigenvalues --    3.18024   3.25201   3.27823   3.31784   3.40883
 Alpha virt. eigenvalues --    3.46610   3.49338   3.61823   3.67017   3.74408
 Alpha virt. eigenvalues --    3.76822
          Condensed to atoms (all electrons):
               1          2          3          4          5          6
     1  C    4.306004   0.602230   0.298710  -0.016879  -0.002826   0.379170
     2  O    0.602230   7.751501  -0.071441   0.015877  -0.000371  -0.062480
     3  O    0.298710  -0.071441   8.002647   0.317372  -0.071533  -0.075853
     4  C   -0.016879   0.015877   0.317372   4.299630   0.670990  -0.000578
     5  O   -0.002826  -0.000371  -0.071533   0.670990   7.712921  -0.000035
     6  O    0.379170  -0.062480  -0.075853  -0.000578  -0.000035   8.040431
     7  O   -0.000107  -0.002275  -0.085419   0.371553  -0.073531  -0.000118
     8  C   -0.000292  -0.000167   0.002628  -0.034411   0.005136  -0.000015
     9  C   -0.000182  -0.000197   0.000002   0.006379   0.000367   0.000001
    10  H    0.000064  -0.000102  -0.000004  -0.000261  -0.000009   0.000002
    11  H   -0.000006   0.000009  -0.000030  -0.000021   0.000003   0.000000
    12  H    0.000005  -0.000002   0.000004  -0.000042   0.000021   0.000000
    13  C   -0.000074  -0.000899  -0.000540  -0.005505  -0.011355  -0.000000
    14  H   -0.000067   0.000043   0.000181   0.002905   0.014451   0.000001
    15  H    0.000028   0.004201  -0.000132   0.001035  -0.000330   0.000008
    16  H    0.000000   0.000012   0.000003   0.000413   0.000144   0.000000
    17  C    0.000070   0.000011  -0.000379  -0.007205  -0.011796   0.000000
    18  H   -0.000000   0.000000  -0.000027   0.000398  -0.000122   0.000000
    19  H    0.000006  -0.000002   0.000238   0.001582   0.016980   0.000000
    20  H    0.000000   0.000000   0.000007   0.000513   0.000236   0.000000
    21  C   -0.036682   0.003834  -0.002381  -0.000605  -0.000006   0.197597
    22  C    0.001308  -0.011203   0.003034   0.000517   0.000007  -0.048627
    23  H    0.000501  -0.000137   0.000430   0.000376   0.000003   0.000047
    24  H    0.004742   0.011112  -0.001792  -0.000558   0.000003  -0.005996
    25  H    0.000152  -0.000134   0.000002  -0.000025   0.000000   0.004252
    26  C   -0.009086  -0.009521  -0.000159   0.000041  -0.000000  -0.043849
    27  H   -0.000713   0.016815   0.000222  -0.000020  -0.000000  -0.003667
    28  H    0.000769  -0.000019   0.000014   0.000003   0.000000   0.000086
    29  H    0.000618   0.000318   0.000011  -0.000001   0.000000   0.004122
    30  C    0.005005   0.000299  -0.000366  -0.000036  -0.000000  -0.055529
    31  H    0.000211   0.000011   0.000016   0.000003   0.000000   0.001336
    32  H   -0.000196   0.000014  -0.000016  -0.000005  -0.000000   0.001890
    33  H   -0.000064   0.000014   0.000006  -0.000000   0.000000   0.004300
               7          8          9         10         11         12
     1  C   -0.000107  -0.000292  -0.000182   0.000064  -0.000006   0.000005
     2  O   -0.002275  -0.000167  -0.000197  -0.000102   0.000009  -0.000002
     3  O   -0.085419   0.002628   0.000002  -0.000004  -0.000030   0.000004
     4  C    0.371553  -0.034411   0.006379  -0.000261  -0.000021  -0.000042
     5  O   -0.073531   0.005136   0.000367  -0.000009   0.000003   0.000021
     6  O   -0.000118  -0.000015   0.000001   0.000002   0.000000   0.000000
     7  O    8.053974   0.179589  -0.048394  -0.001759   0.000309   0.004162
     8  C    0.179589   4.914152   0.406611  -0.013997  -0.015001  -0.018126
     9  C   -0.048394   0.406611   4.645061   0.386839   0.382520   0.386030
    10  H   -0.001759  -0.013997   0.386839   0.604142  -0.022973  -0.018013
    11  H    0.000309  -0.015001   0.382520  -0.022973   0.615782  -0.017746
    12  H    0.004162  -0.018126   0.386030  -0.018013  -0.017746   0.616559
    13  C   -0.039765   0.414348  -0.069730  -0.008228   0.009022  -0.004482
    14  H   -0.005051  -0.012887   0.007651   0.000005  -0.000434   0.000022
    15  H   -0.001569  -0.013831  -0.009776   0.005197  -0.000049  -0.000228
    16  H    0.004097  -0.019635  -0.003917  -0.000480   0.000003   0.002398
    17  C   -0.040522   0.409696  -0.071904   0.008553  -0.009002  -0.003789
    18  H   -0.000259  -0.014327  -0.009573  -0.000088   0.005766  -0.000308
    19  H   -0.004675  -0.011913   0.007482  -0.000427  -0.000037   0.000087
    20  H    0.004061  -0.020015  -0.004043   0.000034  -0.000405   0.002499
    21  C   -0.000635   0.000003   0.000061  -0.000002   0.000008  -0.000002
    22  C   -0.000839  -0.000123  -0.000517  -0.000209   0.000051   0.000023
    23  H    0.001440  -0.000065   0.000069  -0.000145   0.000537   0.000002
    24  H    0.005248  -0.000518   0.000280   0.003697   0.000122   0.000016
    25  H    0.000124  -0.000003   0.000019   0.000024   0.000020  -0.000000
    26  C    0.000008  -0.000002   0.000001  -0.000000  -0.000000   0.000000
    27  H   -0.000031   0.000005  -0.000003  -0.000009  -0.000000  -0.000000
    28  H   -0.000000   0.000000  -0.000000  -0.000000  -0.000000  -0.000000
    29  H    0.000000   0.000000  -0.000000   0.000000   0.000000  -0.000000
    30  C   -0.000001  -0.000000  -0.000001  -0.000000   0.000000   0.000000
    31  H    0.000000   0.000000   0.000000  -0.000000  -0.000000  -0.000000
    32  H   -0.000004  -0.000000   0.000000  -0.000000  -0.000001  -0.000000
    33  H    0.000000  -0.000000   0.000000  -0.000000  -0.000000  -0.000000
              13         14         15         16         17         18
     1  C   -0.000074  -0.000067   0.000028   0.000000   0.000070  -0.000000
     2  O   -0.000899   0.000043   0.004201   0.000012   0.000011   0.000000
     3  O   -0.000540   0.000181  -0.000132   0.000003  -0.000379  -0.000027
     4  C   -0.005505   0.002905   0.001035   0.000413  -0.007205   0.000398
     5  O   -0.011355   0.014451  -0.000330   0.000144  -0.011796  -0.000122
     6  O   -0.000000   0.000001   0.000008   0.000000   0.000000   0.000000
     7  O   -0.039765  -0.005051  -0.001569   0.004097  -0.040522  -0.000259
     8  C    0.414348  -0.012887  -0.013831  -0.019635   0.409696  -0.014327
     9  C   -0.069730   0.007651  -0.009776  -0.003917  -0.071904  -0.009573
    10  H   -0.008228   0.000005   0.005197  -0.000480   0.008553  -0.000088
    11  H    0.009022  -0.000434  -0.000049   0.000003  -0.009002   0.005766
    12  H   -0.004482   0.000022  -0.000228   0.002398  -0.003789  -0.000308
    13  C    4.655433   0.387713   0.378634   0.386801  -0.073727   0.009058
    14  H    0.387713   0.583248  -0.020860  -0.018243  -0.009612   0.000123
    15  H    0.378634  -0.020860   0.610662  -0.017234   0.008900  -0.000480
    16  H    0.386801  -0.018243  -0.017234   0.616100  -0.003851  -0.000143
    17  C   -0.073727  -0.009612   0.008900  -0.003851   4.658752   0.378449
    18  H    0.009058   0.000123  -0.000480  -0.000143   0.378449   0.622604
    19  H   -0.009107   0.004400   0.000091  -0.000262   0.386366  -0.020877
    20  H   -0.004117  -0.000148  -0.000078   0.002412   0.386863  -0.018461
    21  C   -0.000002   0.000000  -0.000001  -0.000000  -0.000001  -0.000000
    22  C    0.000012   0.000002  -0.000047   0.000000  -0.000019  -0.000004
    23  H    0.000019   0.000000  -0.000004  -0.000000  -0.000016   0.000020
    24  H   -0.000126  -0.000011   0.000220   0.000001   0.000088   0.000001
    25  H    0.000002  -0.000000  -0.000000  -0.000000   0.000001   0.000000
    26  C    0.000000   0.000000  -0.000003   0.000000   0.000000  -0.000000
    27  H   -0.000004  -0.000000   0.000014  -0.000000  -0.000000  -0.000000
    28  H   -0.000000  -0.000000   0.000000  -0.000000   0.000000  -0.000000
    29  H   -0.000000  -0.000000   0.000000  -0.000000  -0.000000   0.000000
    30  C   -0.000000   0.000000   0.000000  -0.000000  -0.000000   0.000000
    31  H    0.000000  -0.000000   0.000000  -0.000000   0.000000   0.000000
    32  H   -0.000000   0.000000  -0.000000   0.000000   0.000000  -0.000000
    33  H    0.000000  -0.000000  -0.000000  -0.000000   0.000000  -0.000000
              19         20         21         22         23         24
     1  C    0.000006   0.000000  -0.036682   0.001308   0.000501   0.004742
     2  O   -0.000002   0.000000   0.003834  -0.011203  -0.000137   0.011112
     3  O    0.000238   0.000007  -0.002381   0.003034   0.000430  -0.001792
     4  C    0.001582   0.000513  -0.000605   0.000517   0.000376  -0.000558
     5  O    0.016980   0.000236  -0.000006   0.000007   0.000003   0.000003
     6  O    0.000000   0.000000   0.197597  -0.048627   0.000047  -0.005996
     7  O   -0.004675   0.004061  -0.000635  -0.000839   0.001440   0.005248
     8  C   -0.011913  -0.020015   0.000003  -0.000123  -0.000065  -0.000518
     9  C    0.007482  -0.004043   0.000061  -0.000517   0.000069   0.000280
    10  H   -0.000427   0.000034  -0.000002  -0.000209  -0.000145   0.003697
    11  H   -0.000037  -0.000405   0.000008   0.000051   0.000537   0.000122
    12  H    0.000087   0.002499  -0.000002   0.000023   0.000002   0.000016
    13  C   -0.009107  -0.004117  -0.000002   0.000012   0.000019  -0.000126
    14  H    0.004400  -0.000148   0.000000   0.000002   0.000000  -0.000011
    15  H    0.000091  -0.000078  -0.000001  -0.000047  -0.000004   0.000220
    16  H   -0.000262   0.002412  -0.000000   0.000000  -0.000000   0.000001
    17  C    0.386366   0.386863  -0.000001  -0.000019  -0.000016   0.000088
    18  H   -0.020877  -0.018461  -0.000000  -0.000004   0.000020   0.000001
    19  H    0.579321  -0.016943   0.000000   0.000001  -0.000001  -0.000002
    20  H   -0.016943   0.617452   0.000000   0.000000  -0.000000  -0.000002
    21  C    0.000000   0.000000   4.919754   0.406997  -0.012522  -0.011735
    22  C    0.000001   0.000000   0.406997   4.674945   0.378279   0.384407
    23  H   -0.000001  -0.000000  -0.012522   0.378279   0.613048  -0.021592
    24  H   -0.000002  -0.000002  -0.011735   0.384407  -0.021592   0.582229
    25  H   -0.000000  -0.000000  -0.015728   0.383812  -0.017638  -0.018434
    26  C    0.000000  -0.000000   0.411153  -0.082616   0.009256  -0.008332
    27  H    0.000000   0.000000  -0.011878  -0.006960  -0.000053   0.004498
    28  H   -0.000000   0.000000  -0.013794   0.009276  -0.000487   0.000068
    29  H   -0.000000  -0.000000  -0.020081  -0.002637  -0.000064  -0.000473
    30  C    0.000000   0.000000   0.400948  -0.072436  -0.010403   0.008156
    31  H   -0.000000  -0.000000  -0.015247   0.009243  -0.000025  -0.000430
    32  H    0.000000  -0.000000  -0.015035  -0.009306   0.005861  -0.000057
    33  H   -0.000000  -0.000000  -0.017166  -0.004139  -0.000190  -0.000015
              25         26         27         28         29         30
     1  C    0.000152  -0.009086  -0.000713   0.000769   0.000618   0.005005
     2  O   -0.000134  -0.009521   0.016815  -0.000019   0.000318   0.000299
     3  O    0.000002  -0.000159   0.000222   0.000014   0.000011  -0.000366
     4  C   -0.000025   0.000041  -0.000020   0.000003  -0.000001  -0.000036
     5  O    0.000000  -0.000000  -0.000000   0.000000   0.000000  -0.000000
     6  O    0.004252  -0.043849  -0.003667   0.000086   0.004122  -0.055529
     7  O    0.000124   0.000008  -0.000031  -0.000000   0.000000  -0.000001
     8  C   -0.000003  -0.000002   0.000005   0.000000   0.000000  -0.000000
     9  C    0.000019   0.000001  -0.000003  -0.000000  -0.000000  -0.000001
    10  H    0.000024  -0.000000  -0.000009  -0.000000   0.000000  -0.000000
    11  H    0.000020  -0.000000  -0.000000  -0.000000   0.000000   0.000000
    12  H   -0.000000   0.000000  -0.000000  -0.000000  -0.000000   0.000000
    13  C    0.000002   0.000000  -0.000004  -0.000000  -0.000000  -0.000000
    14  H   -0.000000   0.000000  -0.000000  -0.000000  -0.000000   0.000000
    15  H   -0.000000  -0.000003   0.000014   0.000000   0.000000   0.000000
    16  H   -0.000000   0.000000  -0.000000  -0.000000  -0.000000  -0.000000
    17  C    0.000001   0.000000  -0.000000   0.000000  -0.000000  -0.000000
    18  H    0.000000  -0.000000  -0.000000  -0.000000   0.000000   0.000000
    19  H   -0.000000   0.000000   0.000000  -0.000000  -0.000000   0.000000
    20  H   -0.000000  -0.000000   0.000000   0.000000  -0.000000   0.000000
    21  C   -0.015728   0.411153  -0.011878  -0.013794  -0.020081   0.400948
    22  C    0.383812  -0.082616  -0.006960   0.009276  -0.002637  -0.072436
    23  H   -0.017638   0.009256  -0.000053  -0.000487  -0.000064  -0.010403
    24  H   -0.018434  -0.008332   0.004498   0.000068  -0.000473   0.008156
    25  H    0.611884  -0.003653  -0.000499  -0.000096   0.002243  -0.003983
    26  C   -0.003653   4.664100   0.384853   0.377715   0.382996  -0.072130
    27  H   -0.000499   0.384853   0.584441  -0.020073  -0.016835   0.007691
    28  H   -0.000096   0.377715  -0.020073   0.621172  -0.018489  -0.010060
    29  H    0.002243   0.382996  -0.016835  -0.018489   0.623198  -0.004736
    30  C   -0.003983  -0.072130   0.007691  -0.010060  -0.004736   4.667073
    31  H   -0.000061  -0.009297  -0.000022   0.005939  -0.000336   0.380977
    32  H   -0.000475   0.009356  -0.000468  -0.000041  -0.000112   0.381564
    33  H    0.001953  -0.003462   0.000081  -0.000342   0.002490   0.383303
              31         32         33
     1  C    0.000211  -0.000196  -0.000064
     2  O    0.000011   0.000014   0.000014
     3  O    0.000016  -0.000016   0.000006
     4  C    0.000003  -0.000005  -0.000000
     5  O    0.000000  -0.000000   0.000000
     6  O    0.001336   0.001890   0.004300
     7  O    0.000000  -0.000004   0.000000
     8  C    0.000000  -0.000000  -0.000000
     9  C    0.000000   0.000000   0.000000
    10  H   -0.000000  -0.000000  -0.000000
    11  H   -0.000000  -0.000001  -0.000000
    12  H   -0.000000  -0.000000  -0.000000
    13  C    0.000000  -0.000000   0.000000
    14  H   -0.000000   0.000000  -0.000000
    15  H    0.000000  -0.000000  -0.000000
    16  H   -0.000000   0.000000  -0.000000
    17  C    0.000000   0.000000   0.000000
    18  H    0.000000  -0.000000  -0.000000
    19  H   -0.000000   0.000000  -0.000000
    20  H   -0.000000  -0.000000  -0.000000
    21  C   -0.015247  -0.015035  -0.017166
    22  C    0.009243  -0.009306  -0.004139
    23  H   -0.000025   0.005861  -0.000190
    24  H   -0.000430  -0.000057  -0.000015
    25  H   -0.000061  -0.000475   0.001953
    26  C   -0.009297   0.009356  -0.003462
    27  H   -0.000022  -0.000468   0.000081
    28  H    0.005939  -0.000041  -0.000342
    29  H   -0.000336  -0.000112   0.002490
    30  C    0.380977   0.381564   0.383303
    31  H    0.612447  -0.021295  -0.017501
    32  H   -0.021295   0.612068  -0.017925
    33  H   -0.017501  -0.017925   0.617576
 Mulliken charges:
               1
     1  C    0.467581
     2  O   -0.247353
     3  O   -0.315456
     4  C    0.376567
     5  O   -0.249346
     6  O   -0.336497
     7  O   -0.319610
     8  C   -0.156840
     9  C   -0.011135
    10  H    0.058150
    11  H    0.051552
    12  H    0.050908
    13  C   -0.013379
    14  H    0.066569
    15  H    0.055631
    16  H    0.051381
    17  C   -0.005926
    18  H    0.048250
    19  H    0.067695
    20  H    0.050135
    21  C   -0.166854
    22  C   -0.012234
    23  H    0.053454
    24  H    0.065186
    25  H    0.056241
    26  C    0.002632
    27  H    0.062615
    28  H    0.048360
    29  H    0.047764
    30  C   -0.005334
    31  H    0.054030
    32  H    0.054182
    33  H    0.051083
 Sum of Mulliken charges =  -0.00000
 Mulliken charges with hydrogens summed into heavy atoms:
               1
     1  C    0.467581
     2  O   -0.247353
     3  O   -0.315456
     4  C    0.376567
     5  O   -0.249346
     6  O   -0.336497
     7  O   -0.319610
     8  C   -0.156840
     9  C    0.149475
    13  C    0.160202
    17  C    0.160154
    21  C   -0.166854
    22  C    0.162647
    26  C    0.161371
    30  C    0.153961
 Electronic spatial extent (au):  <R**2>=           3793.3942
 Charge=             -0.0000 electrons
 Dipole moment (field-independent basis, Debye):
    X=              1.2059    Y=              4.4027    Z=             -0.2821  Tot=              4.5736
 Quadrupole moment (field-independent basis, Debye-Ang):
   XX=            -78.2266   YY=            -93.9024   ZZ=            -92.0972
   XY=             -4.6885   XZ=             -0.9847   YZ=             -1.7271
 Traceless Quadrupole moment (field-independent basis, Debye-Ang):
   XX=              9.8488   YY=             -5.8270   ZZ=             -4.0218
   XY=             -4.6885   XZ=             -0.9847   YZ=             -1.7271
 Octapole moment (field-independent basis, Debye-Ang**2):
  XXX=              8.5486  YYY=              3.1260  ZZZ=             -7.8353  XYY=             13.8463
  XXY=             26.3682  XXZ=              3.1608  XZZ=             -3.8802  YZZ=             -2.2164
  YYZ=              5.6397  XYZ=             -2.2439
 Hexadecapole moment (field-independent basis, Debye-Ang**3):
 XXXX=          -3414.4823 YYYY=           -887.0525 ZZZZ=           -530.8688 XXXY=            -29.4271
 XXXZ=             -8.2698 YYYX=            -26.3797 YYYZ=             -9.2593 ZZZX=              0.0570
 ZZZY=              5.3229 XXYY=           -739.8918 XXZZ=           -687.2812 YYZZ=           -231.7094
 XXYZ=             -5.6245 YYXZ=              0.3931 ZZXY=              2.8123
 N-N= 1.135865836677D+03 E-N=-4.061434799428D+03  KE= 7.594548115374D+02
 No NMR shielding tensors so no spin-rotation constants.
 Leave Link  601 at Fri Mar 12 22:58:30 2021, MaxMem=  2684354560 cpu:               1.8 elap:               0.2
[...]
 0.00111045,0.00025424,-0.00390616,-0.00067304,0.00090204,0.00019455,0.
 00033780,-0.00012571,-0.00005987,0.00018132,0.00003889,0.00012153,-0.1
 9142067,0.12472925,0.06091643,-0.01047618,0.01154683,0.00277313,0.2039
 3363,-0.00024834,-0.00019428,0.00017909,0.00005489,-0.00011132,-0.0001
 5810,0.00015711,0.00016462,0.00001548,-0.00014689,-0.00008992,0.000009
 39,0.00003654,0.00005655,0.00000729,-0.00094274,0.00132275,-0.00009588
 ,0.00008187,0.00001419,-0.00000682,-0.00004565,-0.00002221,0.00000723,
 0.00000533,0.00000219,-0.00000361,-0.00000302,-0.00000069,0.00000574,-
 0.00000327,-0.00000206,-0.00000228,0.00000368,0.00000166,-0.00000043,0
 .00000702,0.00000454,-0.00000262,-0.00000364,-0.00000342,0.00000086,-0
 .00000280,0.00000074,0.00000453,0.00000379,0.00000098,-0.00000191,0.00
 000565,0.00000516,-0.00000205,-0.00000048,-0.00000134,0.00000037,-0.00
 000332,-0.00000208,-0.00000104,0.00000351,0.00000153,0.00000111,0.0049
 5740,-0.00765886,-0.00500337,0.00064217,0.00028938,0.00236688,0.000701
 93,-0.00002563,-0.00019187,0.00007099,-0.00001787,-0.00010553,-0.00023
 504,0.00030478,0.00005157,0.12521748,-0.15279889,-0.04997899,-0.011388
 11,0.01073471,0.00421739,-0.13692559,0.16031361,-0.00026608,-0.0007500
 9,0.00020168,0.00015299,0.00029436,0.00005870,0.00005966,0.00026911,0.
 00011724,-0.00015149,-0.00018241,0.00001235,0.00001948,0.00007928,-0.0
 0001138,0.00189944,0.00092723,0.00192453,0.00007113,0.00001904,0.00000
 202,-0.00003713,-0.00001131,0.00000831,0.00000321,0.00000164,-0.000003
 20,-0.00000135,0.00000238,-0.00000250,0.00000037,0.00000203,0.00000268
 ,0.00000193,-0.00000217,-0.00000019,0.00000667,-0.00000161,-0.00000661
 ,-0.00000012,-0.00000050,0.00000447,-0.00000245,-0.00000218,0.00000314
 ,0.00000161,0.00000145,-0.00000166,0.00000672,0.00000167,-0.00000225,-
 0.00000102,0.00000047,0.00000036,-0.00000222,-0.00000241,0.00000002,0.
 00000242,0.00000131,0.00000118,-0.01959759,0.01752247,0.00711367,-0.00
 243687,0.00098620,-0.00417055,-0.00126934,0.00086515,0.00046047,-0.000
 09654,-0.00006770,-0.00006804,0.00017407,0.00007212,-0.00004180,0.0632
 2220,-0.05347141,-0.07267313,0.01217524,-0.01429011,-0.00512811,-0.063
 50046,0.05408874,0.07532577,0.00097786,0.00193829,0.00003986,-0.000914
 66,-0.00035032,-0.00024122,-0.00034186,-0.00115135,-0.00031652,0.00066
 983,0.00051036,-0.00004296,-0.00013050,-0.00027968,0.00001125,-0.00250
 663,-0.00064799,-0.00332423,-0.00032415,-0.00004546,0.00000773,0.00017
 844,0.00005664,-0.00003926,-0.00001911,-0.00001228,0.00000576,0.000008
 57,-0.00000200,-0.00000290,0.00000430,0.00000032,-0.00000074,-0.000010
 80,0.00000271,0.00000060,-0.00003455,-0.00000853,0.00001459,0.00000761
 ,0.00001109,-0.00000757,0.00001570,0.00000042,-0.00001439,-0.00000967,
 -0.00000723,0.00000661,-0.00003141,-0.00001126,0.00001148,0.00000397,0
 .00000155,-0.00000015,0.00001014,0.00001113,0.00000375,-0.00001094,-0.
 00000715,-0.00000562,-0.00679245,-0.01441424,-0.00372411,0.00042118,-0
 .00022491,0.00046842,0.00023506,0.00008455,0.00016300,-0.00007401,-0.0
 0013170,-0.00007860,-0.00039242,0.00057916,-0.00022805,-0.09447891,-0.
 09359999,-0.05192972,-0.00647329,-0.01214401,-0.00940560,0.01124601,0.
 01815664,0.01003178,0.09814308,-0.00013509,-0.00011341,0.00159368,-0.0
 0043476,-0.00015187,-0.00084430,-0.00002715,-0.00014991,-0.00022853,0.
 00024414,0.00018351,-0.00000286,-0.00005024,-0.00005973,-0.00000114,0.
 00176981,0.00210574,0.00252959,-0.00015290,-0.00002340,-0.00000421,0.0
 0008883,0.00002871,-0.00001577,-0.00000872,-0.00000443,0.00000313,0.00
 000487,-0.00000091,-0.00000333,0.00000278,0.00000115,0.00000020,-0.000
 00577,-0.00000006,0.00000036,-0.00001635,-0.00000405,0.00000809,0.0000
 0555,0.00000733,-0.00000220,0.00001004,-0.00000169,-0.00000903,-0.0000
 0678,-0.00000350,0.00000204,-0.00001401,-0.00000569,0.00000450,0.00000
 196,0.00000077,-0.00000069,0.00000515,0.00000515,0.00000168,-0.0000057
 9,-0.00000354,-0.00000224,0.00436346,0.00628357,0.00406879,0.00015971,
 -0.00011442,-0.00014471,-0.00016738,0.00020522,0.00000734,0.00003597,-
 0.00004430,-0.00008122,0.00042344,0.00009252,0.00027657,-0.09543318,-0
 .22510514,-0.09748175,-0.00314696,-0.00928469,-0.00688228,-0.00935085,
 -0.01259623,-0.00618426,0.10173448,0.23837568,0.00268601,0.00286152,-0
 .00333614,0.00017820,0.00005260,0.00193821,-0.00060190,-0.00090034,0.0
 0012790,0.00057327,0.00035849,-0.00006805,-0.00011737,-0.00024838,0.00
 000408,-0.00633369,-0.00183013,-0.00470006,-0.00024437,-0.00001080,0.0
 0003458,0.00011702,0.00004287,-0.00002314,-0.00001328,-0.00000812,0.00
 000607,0.00000467,-0.00000159,-0.00000203,0.00000346,0.00000012,-0.000
 00104,-0.00000750,0.00000209,0.00000118,-0.00002167,-0.00000725,0.0000
 0751,0.00000495,0.00000653,-0.00000687,0.00000474,0.00000109,-0.000006
 23,-0.00000574,-0.00000353,0.00000661,-0.00001917,-0.00000892,0.000006
 90,0.00000253,0.00000151,-0.00000068,0.00000807,0.00000788,0.00000273,
 -0.00000776,-0.00000419,-0.00000330,-0.00683457,-0.02101989,-0.0081405
 0,0.00068565,-0.00032897,0.00062526,0.00025807,0.00009886,0.00000038,0
 .00002621,0.00004310,0.00001875,-0.00022319,0.00033231,0.00025633,-0.0
 5145545,-0.09409286,-0.09653411,0.00776430,0.01715195,0.01087706,-0.00
 434655,-0.00526248,-0.00423575,0.05744530,0.10273384,0.10259832,-0.000
 26977,-0.00052806,-0.00139163,0.00018844,-0.00016522,0.00064196,-0.000
 55528,-0.00060930,0.00000815,0.00032979,0.00017304,-0.00010106,-0.0000
 7890,-0.00016427,0.00003121,-0.01447178,-0.02026191,0.00727131,-0.0001
 5028,-0.00002017,0.00001125,0.00007052,0.00003897,-0.00002051,-0.00000
 675,-0.00000201,0.00001706,0.00000589,0.00000253,-0.00000894,0.0000035
 5,0.00000062,0.00000154,-0.00000632,-0.00000232,-0.00000170,-0.0000096
 5,-0.00000690,0.00000782,0.00000305,0.00000156,-0.00000719,-0.00000104
 ,0.00000517,-0.00000689,-0.00000415,-0.00000134,0.00000438,-0.00000778
 ,-0.00001072,0.00000718,0.00000141,0.00000107,-0.00000012,0.00000539,0
 .00000359,-0.00000062,-0.00000554,-0.00000208,-0.00000240,-0.12205778,
 -0.03057603,0.05195941,-0.02286417,-0.00885167,0.02309725,0.00098012,-
 0.00118190,0.00050430,-0.00330707,0.00288192,0.00112020,0.00061994,-0.
 00115391,-0.00046102,0.01174573,0.00901992,-0.01004574,-0.00185176,0.0
 0179466,-0.00414229,0.00039055,0.00024364,-0.00089832,0.00025208,-0.00
 003622,0.00036250,0.56960178,0.00062672,-0.00144586,-0.00371506,-0.000
 96677,0.00013902,0.00171253,-0.00172134,-0.00220240,-0.00002881,0.0012
 4020,0.00062999,-0.00034612,-0.00027542,-0.00053221,0.00007487,-0.0325
 3146,-0.03727867,0.01588534,-0.00058269,-0.00001502,0.00008585,0.00028
 576,0.00008155,-0.00006668,-0.00003193,-0.00002633,-0.00000571,0.00000
 524,-0.00000513,0.00000579,0.00000565,-0.00000067,-0.00000292,-0.00001
 531,0.00001058,0.00000453,-0.00005781,-0.00001744,0.00001658,0.0000130
 6,0.00002137,-0.00001309,0.00002038,-0.00000248,-0.00001277,-0.0000140
 7,-0.00000957,0.00001396,-0.00005342,-0.00001479,0.00001558,0.00000809
 ,0.00000217,0.00000112,0.00001699,0.00002076,0.00000781,-0.00001740,-0
 .00001118,-0.00000764,-0.02594922,-0.09614954,0.03875802,0.01126473,0.
 01143820,-0.01185181,0.00001710,0.00009763,-0.00034695,0.00428484,-0.0
 0225559,-0.00167512,-0.00009375,0.00038521,0.00010273,-0.00401451,-0.0
 0560224,0.01338669,0.00092674,0.00006720,0.00089607,-0.00101462,0.0000
 7942,0.00002867,-0.00048674,-0.00001785,-0.00073119,-0.02449045,0.5851
 0370,0.00071944,-0.00036043,-0.00311533,-0.00071603,-0.00033588,0.0017
 9323,-0.00160617,-0.00211338,-0.00019744,0.00117392,0.00068602,-0.0002
 8475,-0.00024943,-0.00051778,0.00007161,-0.01334591,-0.01497788,0.0102
 8755,-0.00054161,-0.00002725,0.00004875,0.00025494,0.00008383,-0.00005
 423,-0.00002628,-0.00002262,0.00001524,0.00000890,-0.00000276,-0.00000
 101,0.00000128,-0.00000093,-0.00000489,-0.00001534,0.00000839,-0.00000
 033,-0.00005253,-0.00001639,0.00002016,0.00001044,0.00001610,-0.000015
 57,0.00001596,0.00000294,-0.00001774,-0.00001281,-0.00000854,0.0000122
 5,-0.00004336,-0.00001910,0.00002031,0.00000395,0.00000206,-0.00000193
 ,0.00001546,0.00001684,0.00000565,-0.00001543,-0.00000921,-0.00000933,
 0.05965811,0.05024995,-0.14516866,0.01043054,0.00271313,-0.00930140,-0
 .00152134,0.00042063,0.00085783,0.00070326,-0.00084220,0.00028846,0.00
 006731,0.00053138,0.00006655,0.01438389,0.01637419,-0.02661499,-0.0028
 0528,0.00148942,-0.00345905,0.00103368,-0.00086171,0.00140197,0.000859
 61,0.00038495,0.00079970,0.03916723,0.03319457,0.55945138,-0.00040162,
 -0.00044733,0.00053003,0.00029442,0.00003229,-0.00056383,0.00010966,0.
 00011107,-0.00008600,-0.00023841,-0.00007009,0.00002495,0.00005668,0.0
 0002687,-0.00000899,0.00183781,0.00118583,-0.00053043,0.00013493,-0.00
 002640,-0.00001891,-0.00005776,-0.00000499,0.00001742,0.00000522,0.000
 00561,0.00000418,0.00000030,0.00000131,-0.00000674,0.00000127,0.000002
 15,0.00000341,0.00000219,-0.00000442,-0.00000082,0.00001302,0.00000224
 ,-0.00000220,-0.00000238,-0.00000544,0.00000245,-0.00000528,0.00000154
 ,0.00000042,0.00000231,0.00000257,-0.00000233,0.00001354,0.00000019,-0
 .00000347,-0.00000376,0.00000146,-0.00000057,-0.00000309,-0.00000621,-
 0.00000072,0.00000328,0.00000267,0.00000070,-0.01461892,0.01225157,0.0
 0426731,-0.00161152,-0.00322329,0.00286661,0.00035502,-0.00013627,-0.0
 0005429,-0.00070789,0.00090825,0.00051955,0.00022202,0.00011266,-0.000
 08577,0.00053925,0.00040136,-0.00156773,0.00002919,-0.00022781,-0.0001
 8743,0.00068111,-0.00024074,0.00029896,0.00003377,-0.00012010,-0.00002
 713,-0.19961317,0.12562345,0.05868597,0.21230043,-0.00033347,-0.000254
 59,0.00042429,0.00009598,0.00005515,-0.00023040,0.00016714,0.00022578,
 0.00001879,-0.00015901,-0.00012895,0.00002738,0.00003134,0.00007202,-0
 .00000433,0.00061864,0.00200670,0.00011168,0.00008328,0.00001300,-0.00
 001083,-0.00004280,-0.00001803,0.00000928,0.00000512,0.00000373,-0.000
 00043,-0.00000112,0.00000026,0.00000216,-0.00000223,-0.00000098,-0.000
 00129,0.00000289,-0.00000036,-0.00000082,0.00000750,0.00000334,-0.0000
 0281,-0.00000239,-0.00000265,0.00000175,-0.00000254,0.00000018,0.00000
 288,0.00000269,0.00000121,-0.00000217,0.00000673,0.00000356,-0.0000021
 8,-0.00000076,-0.00000081,-0.00000013,-0.00000286,-0.00000240,-0.00000
 094,0.00000307,0.00000156,0.00000115,-0.01302429,0.00789662,0.00493468
 ,-0.00156224,-0.00098293,0.00154899,-0.00007665,-0.00013009,0.00000506
 ,-0.00062513,0.00053638,0.00037554,-0.00000272,0.00017669,0.00023397,-
 0.00056792,0.00067717,-0.00030652,-0.00011665,0.00005276,-0.00011638,0
 .00006252,0.00006416,-0.00001509,0.00013904,-0.00001267,0.00000594,0.1
 2868522,-0.15060346,-0.04911423,-0.13577778,0.15690470,-0.00016936,-0.
 00013019,-0.00011066,-0.00007240,0.00010821,0.00008673,0.00008904,0.00
 008736,0.00002987,-0.00003197,-0.00008170,0.00001565,0.,0.00004378,-0.
 00000946,-0.00160052,-0.00051706,0.00058874,0.00002055,0.00001979,-0.0
 0000123,-0.00001647,-0.00001273,0.00000665,0.00000184,-0.00000135,-0.0
 0000687,-0.00000286,-0.00000101,0.00000404,-0.00000202,0.00000033,-0.0
 0000096,0.00000214,0.00000208,0.00000070,0.00000117,0.00000074,-0.0000
 0394,-0.00000055,0.00000072,0.00000237,0.00000039,-0.00000229,0.000002
 53,0.00000144,0.00000038,-0.00000087,0.00000129,0.00000273,-0.00000086
 ,-0.00000130,0.00000026,-0.00000041,-0.00000137,-0.00000066,0.00000133
 ,0.00000187,0.00000040,-0.00000002,0.01536548,-0.01542777,-0.00700371,
 0.00226984,0.00303765,-0.00274804,0.00022020,-0.00004553,0.00014651,0.
 00127694,-0.00074308,0.00006487,-0.00025526,0.00025962,0.00010480,0.00
 049754,-0.00127542,0.00100406,-0.00017621,0.00012832,0.00025738,-0.000
 22279,0.00063966,-0.00038226,0.00002282,-0.00002524,-0.00010738,0.0578
 0707,-0.04616862,-0.06891919,-0.06617049,0.04989514,0.07218730,-0.0001
 5666,-0.00002297,0.00027495,0.00003294,0.00000027,-0.00011188,0.000092
 02,0.00012057,0.00002745,-0.00005552,-0.00007014,0.00001228,0.00001153
 ,0.00004382,0.00000205,0.00121576,0.00144802,-0.00000114,0.00002818,0.
 00001611,-0.00000440,-0.00001909,-0.00001274,0.00000163,0.00000348,0.0
 0000114,-0.00000169,-0.00000163,-0.00000025,0.00000414,-0.00000277,-0.
 00000175,-0.00000208,0.00000181,0.00000168,-0.00000063,0.00000262,0.00
 000255,-0.00000100,-0.00000120,-0.00000057,0.00000046,-0.00000031,-0.0
 0000026,0.00000212,0.00000131,0.00000045,-0.00000119,0.00000165,0.0000
 0313,-0.00000098,0.00000048,-0.00000147,0.00000017,-0.00000136,0.,-0.0
 0000078,0.00000137,0.00000071,0.00000069,0.00968199,-0.00516287,0.0165
 0004,0.00132321,-0.00034330,0.00046640,-0.00023580,-0.00003895,0.00002
 350,0.00012435,-0.00006112,-0.00012446,-0.00003145,0.00011401,0.000018
 50,-0.00175288,-0.00171392,0.00205451,0.00065388,-0.00050437,0.0008071
 0,0.00004518,-0.00025948,0.00007072,-0.00010899,0.00010715,0.00009624,
 -0.13020542,0.03904385,-0.12401561,-0.01040285,0.00321169,-0.01805037,
 0.13579563,-0.00058858,-0.00050612,0.00057762,0.00028384,0.00007965,-0
 .00054028,0.00018735,0.00023484,-0.00006354,-0.00021237,-0.00020320,0.
 00005652,0.00003848,0.00010294,-0.00001691,0.00120207,0.00173547,-0.00
 030289,0.00012330,0.00002276,-0.00002969,-0.00007578,-0.00002567,0.000
 02600,0.00001004,0.00000331,-0.00000002,-0.00000371,-0.00000018,0.0000
 0177,-0.00000558,0.00000090,-0.00000173,0.00000504,0.00000082,-0.00000
 143,0.00001273,0.00000495,-0.00000597,-0.00000315,-0.00000320,0.000004
 11,-0.00000380,-0.00000150,0.00000346,0.00000381,0.00000294,-0.0000036
 6,0.00001427,0.00000386,-0.00000239,-0.00000502,0.00000011,-0.00000252
 ,-0.00000442,-0.00000541,0.00000012,0.00000543,0.00000325,0.00000034,0
 .00850151,-0.00571123,0.01199821,0.00062904,0.00002390,-0.00099235,-0.
 00012689,0.00047634,-0.00014775,-0.00002209,-0.00016354,-0.00009373,-0
 .00008222,0.00001539,-0.00013322,-0.00252683,-0.00125984,0.00164631,0.
 00041487,0.00016527,0.00096167,-0.00023658,0.00019748,-0.00022445,0.00
 015629,0.00021387,0.00008701,0.03784012,-0.06294589,0.05495724,0.00831
 225,-0.00415911,0.01553402,-0.04021034,0.06323298,0.00014850,-0.000114
 24,-0.00012048,-0.00002987,-0.00001364,0.00033281,0.00004613,0.0001180
 1,0.00005859,-0.00011169,0.00001979,-0.00001613,0.00002961,-0.00000062
 ,0.00000668,-0.00023171,-0.00160269,0.00153070,0.00004885,-0.00002169,
 0.00001022,-0.00001720,0.00000613,-0.00000416,-0.00000057,0.00000046,-
 0.00000067,0.00000011,0.00000246,-0.00000587,0.00000381,0.00000150,0.0
 0000601,0.00000004,-0.00000302,0.00000017,0.00000507,-0.00000307,-0.00
 000045,-0.00000062,-0.00000372,-0.00000016,-0.00000353,0.00000296,0.00
 000049,0.00000103,0.00000088,-0.00000008,0.00000378,-0.00000136,-0.000
 00092,-0.00000016,0.00000057,0.00000267,-0.00000084,-0.00000211,-0.000
 00130,0.00000043,0.00000099,0.00000043,-0.01380017,0.00358003,-0.01776
 781,-0.00156655,0.00003029,0.00088235,0.00086929,-0.00027765,0.0001219
 8,0.00011442,0.00003361,0.00038120,0.00005860,0.00003638,-0.00006701,0
 .00414246,0.00233993,-0.00230419,-0.00095969,0.00056485,-0.00092783,-0
 .00007667,0.00002473,0.00012112,0.00015095,-0.00010236,0.00039527,-0.1
 2018024,0.05644658,-0.22554908,0.00619562,-0.00273316,0.00857829,0.129
 20166,-0.06247873,0.24195858,0.00120717,0.00044516,-0.00101340,-0.0004
 2489,-0.00004758,0.00057358,-0.00058998,-0.00075131,-0.00008026,0.0004
 5138,0.00031161,-0.00009983,-0.00008964,-0.00019893,0.00001876,-0.0031
 1960,-0.00442199,0.00276601,-0.00022388,-0.00002080,0.00002287,0.00011
 638,0.00003704,-0.00002371,-0.00001342,-0.00000801,0.00000303,0.000005
 20,-0.00000187,-0.00000082,0.00000305,0.,-0.00000131,-0.00000700,0.000
 00197,0.00000095,-0.00002320,-0.00000613,0.00000891,0.00000502,0.00000
 783,-0.00000521,0.00000906,-0.00000012,-0.00000808,-0.00000620,-0.0000
 0439,0.00000500,-0.00001998,-0.00000697,0.00000657,0.00000271,0.000001
 15,-0.00000044,0.00000668,0.00000740,0.00000279,-0.00000702,-0.0000046
 7,-0.00000328,-0.00618470,-0.01150560,-0.01028100,0.00042266,0.0000539
 6,-0.00065201,-0.00006809,-0.00008185,0.00003887,0.00024270,0.00016165
 ,0.00001956,-0.00045064,0.00021129,0.00065215,0.00013859,0.00043952,-0
 .00085815,-0.00010775,0.00018971,0.00004638,0.00005799,0.00009948,0.00
 006239,0.00044674,0.00015491,0.00003816,-0.08873163,-0.09106589,-0.042
 22677,0.01103124,0.01917773,0.00919433,-0.00604146,-0.01363306,-0.0040
 4084,0.09196253,0.00099715,0.00140812,-0.00128311,-0.00037248,-0.00024
 826,0.00081795,-0.00056194,-0.00078876,-0.00007202,0.00054552,0.000370
 33,-0.00008285,-0.00010975,-0.00022517,0.00001850,-0.00361902,-0.00308
 483,0.00247198,-0.00026155,-0.00002580,0.00002180,0.00013442,0.0000472
 1,-0.00003015,-0.00001459,-0.00000932,0.00000583,0.00000589,-0.0000010
 6,-0.00000331,0.00000395,0.00000053,-0.00000004,-0.00000862,0.00000177
 ,0.00000076,-0.00002518,-0.00000789,0.00001110,0.00000629,0.00000847,-
 0.00000676,0.00000973,0.00000061,-0.00001005,-0.00000781,-0.00000464,0
 .00000579,-0.00002233,-0.00000977,0.00000815,0.00000313,0.00000121,-0.
 00000018,0.00000835,0.00000861,0.00000245,-0.00000887,-0.00000502,-0.0
 0000382,-0.00165263,-0.01027415,-0.00856657,0.00083893,0.00003700,-0.0
 0067724,0.00004255,0.00004337,0.00008553,0.00012865,0.00013399,0.00021
 430,0.00011795,0.00060177,0.00000146,0.00026655,0.00032951,-0.00085705
 ,0.00009315,0.00029916,0.00009168,-0.00010574,-0.00003365,0.00004238,0
 .00014216,0.00019426,0.00067090,-0.09262754,-0.23894045,-0.09190134,-0
 .00869446,-0.01239791,-0.00532855,0.00428936,0.00846386,0.00414793,0.1
 0045876,0.25410692,0.00007849,0.00028316,0.00096713,0.00001444,-0.0000
 0776,-0.00022465,0.00042720,0.00057062,0.00005996,-0.00025296,-0.00011
 420,0.00005866,0.00005669,0.00012412,-0.00001221,0.00397440,0.00433697
 ,-0.00183776,0.00010018,0.00000386,-0.00000497,-0.00004087,-0.00001541
 ,0.00000578,0.00000390,0.00000540,-0.00000345,-0.00000106,0.00000060,0
 .00000023,0.00000130,-0.00000043,0.00000098,0.00000240,-0.00000242,0.0
 0000051,0.00000942,0.00000325,-0.00000317,-0.00000178,-0.00000294,0.00
 000281,-0.00000284,-0.00000069,0.00000341,0.00000200,0.00000104,-0.000
 00215,0.00000643,0.00000418,-0.00000439,0.00000100,-0.00000093,0.00000
 098,-0.00000273,-0.00000244,-0.00000182,0.00000223,0.00000116,0.000002
 60,0.00606122,0.01586556,0.00857191,-0.00028303,-0.00003005,0.00042542
 ,0.00003373,-0.00010632,0.00000851,-0.00023161,0.00012323,0.00003761,0
 .00039658,-0.00002028,-0.00004503,-0.00023069,0.00001280,0.00042436,0.
 00006695,-0.00016165,0.00022144,-0.00004467,0.00005861,-0.00003227,0.0
 0011816,0.00040139,-0.00054157,-0.04475114,-0.09566483,-0.09242574,-0.
 00409972,-0.00505699,-0.00378598,-0.00724842,-0.02081314,-0.00762141,0
 .04583479,0.10020454,0.09575428\\-0.00000358,0.00000197,-0.00000306,0.
 00000311,-0.00000008,-0.00000469,0.00002246,0.00001428,0.00000133,-0.0
 0004183,0.00000424,0.00000482,-0.00000193,-0.00000375,0.00000196,0.000
 00049,-0.00001282,-0.00000322,0.00002367,-0.00001474,-0.00000036,-0.00
 000989,-0.00000037,0.00000141,-0.00000195,0.00000246,0.00000040,-0.000
 00003,0.,-0.00000101,0.00000018,-0.00000025,-0.00000036,0.00000014,-0.
 00000029,-0.00000070,0.00000415,-0.00000007,-0.00000134,0.00000139,-0.
 00000067,0.00000021,-0.00000010,0.00000083,-0.00000042,-0.00000027,0.0
 0000114,-0.00000005,0.00000500,0.00000129,0.00000086,0.00000069,-0.000
 00115,0.00000069,0.00000205,-0.00000127,0.00000063,0.00000072,0.000000
 10,0.00000149,-0.00000981,0.00001117,0.00000512,0.00000190,-0.00000465
 ,0.00000229,-0.00000043,0.00000186,-0.00000015,-0.00000089,0.00000053,
 -0.00000343,0.00000342,0.00000072,-0.00000325,0.00000420,-0.00000103,0
 .00000175,-0.00000188,0.00000221,0.00000013,-0.00000218,0.00000106,-0.
 00000179,0.00000103,0.00000003,0.00000211,0.00000072,-0.00000218,-0.00
 000103,0.00000129,0.00000098,0.00000027,-0.00000110,-0.00000212,0.0000
 0018,-0.00000076,0.00000060,-0.00000080\\\@


 THOSE WITH THE GOLD MAKE THE RULES.

             -- PETER'S GOLDEN RULE
 Job cpu time:       0 days  2 hours 53 minutes  1.8 seconds.
 Elapsed time:       0 days  0 hours 17 minutes 19.1 seconds.
 File lengths (MBytes):  RWF=    433 Int=      0 D2E=      0 Chk=     17 Scr=      1
 Normal termination of Gaussian 16 at Fri Mar 12 23:40:00 2021.
