 Entering Gaussian System, Link 0=/opt/g16avx/g16
 Input=Boc2O_w.gjf
 Output=Boc2O_w.log
 Initial command:
 /opt/g16avx/l1.exe "/home/scratch/Gau-44297.inp" -scrdir="/home/scratch/"
 Entering Link 1 = /opt/g16avx/l1.exe PID=     44307.
  
 Copyright (c) 1988,1990,1992,1993,1995,1998,2003,2009,2016,
            Gaussian, Inc.  All Rights Reserved.
  
 This is part of the Gaussian(R) 16 program.  It is based on
 the Gaussian(R) 09 system (copyright 2009, Gaussian, Inc.),
 the Gaussian(R) 03 system (copyright 2003, Gaussian, Inc.),
 the Gaussian(R) 98 system (copyright 1998, Gaussian, Inc.),
 the Gaussian(R) 94 system (copyright 1995, Gaussian, Inc.),
 the Gaussian 92(TM) system (copyright 1992, Gaussian, Inc.),
 the Gaussian 90(TM) system (copyright 1990, Gaussian, Inc.),
 the Gaussian 88(TM) system (copyright 1988, Gaussian, Inc.),
 the Gaussian 86(TM) system (copyright 1986, Carnegie Mellon
 University), and the Gaussian 82(TM) system (copyright 1983,
 Carnegie Mellon University). Gaussian is a federally registered
 trademark of Gaussian, Inc.
  
 This software contains proprietary and confidential information,
 including trade secrets, belonging to Gaussian, Inc.
  
 This software is provided under written license and may be
 used, copied, transmitted, or stored only in accord with that
 written license.
  
 The following legend is applicable only to US Government
 contracts under FAR:
  
                    RESTRICTED RIGHTS LEGEND
  
 Use, reproduction and disclosure by the US Government is
 subject to restrictions as set forth in subparagraphs (a)
 and (c) of the Commercial Computer Software - Restricted
 Rights clause in FAR 52.227-19.
  
 Gaussian, Inc.
 340 Quinnipiac St., Bldg. 40, Wallingford CT 06492
  
  
 ---------------------------------------------------------------
 Warning -- This program may not be used in any manner that
 competes with the business of Gaussian, Inc. or will provide
 assistance to any competitor of Gaussian, Inc.  The licensee
 of this program is prohibited from giving any competitor of
 Gaussian, Inc. access to this program.  By using this program,
 the user acknowledges that Gaussian, Inc. is engaged in the
 business of creating and licensing software in the field of
 computational chemistry and represents and warrants to the
 licensee that it is not a competitor of Gaussian, Inc. and that
 it will not use this program in any manner prohibited above.
 ---------------------------------------------------------------
  

 Cite this work as:
 Gaussian 16, Revision A.03,
 M. J. Frisch, G. W. Trucks, H. B. Schlegel, G. E. Scuseria, 
 M. A. Robb, J. R. Cheeseman, G. Scalmani, V. Barone, 
 G. A. Petersson, H. Nakatsuji, X. Li, M. Caricato, A. V. Marenich, 
 J. Bloino, B. G. Janesko, R. Gomperts, B. Mennucci, H. P. Hratchian, 
 J. V. Ortiz, A. F. Izmaylov, J. L. Sonnenberg, D. Williams-Young, 
 F. Ding, F. Lipparini, F. Egidi, J. Goings, B. Peng, A. Petrone, 
 T. Henderson, D. Ranasinghe, V. G. Zakrzewski, J. Gao, N. Rega, 
 G. Zheng, W. Liang, M. Hada, M. Ehara, K. Toyota, R. Fukuda, 
 J. Hasegawa, M. Ishida, T. Nakajima, Y. Honda, O. Kitao, H. Nakai, 
 T. Vreven, K. Throssell, J. A. Montgomery, Jr., J. E. Peralta, 
 F. Ogliaro, M. J. Bearpark, J. J. Heyd, E. N. Brothers, K. N. Kudin, 
 V. N. Staroverov, T. A. Keith, R. Kobayashi, J. Normand, 
 K. Raghavachari, A. P. Rendell, J. C. Burant, S. S. Iyengar, 
 J. Tomasi, M. Cossi, J. M. Millam, M. Klene, C. Adamo, R. Cammi, 
 J. W. Ochterski, R. L. Martin, K. Morokuma, O. Farkas, 
 J. B. Foresman, and D. J. Fox, Gaussian, Inc., Wallingford CT, 2016.
 
 ******************************************
 Gaussian 16:  ES64L-G16RevA.03 25-Dec-2016
                12-Mar-2021 
 ******************************************
 %chk=boc_w.chk
 %nprocshared=10
 Will use up to   10 processors via shared memory.
 %mem=20Gb
 ----------------------------------------------------------------------
 #p opt PBE1PBE/DEF2SVP empiricaldispersion=gd3bj scrf=(SMD, solvent=Wa
 ter) freq=noraman
 ----------------------------------------------------------------------
 1/18=20,19=15,26=3,38=1/1,3;
 2/9=110,12=2,17=6,18=5,40=1/2;
 3/5=43,7=101,11=2,25=1,30=1,70=32201,71=1,72=1,74=-13,124=41/1,2,3;
 4//1;
 5/5=2,38=5,53=1/2;
 6/7=2,8=2,9=2,10=2,28=1/1;
 7//1,2,3,16;
 1/18=20,19=15,26=3/3(2);
 2/9=110/2;
 99//99;
 2/9=110/2;
 3/5=43,7=101,11=2,25=1,30=1,70=32205,71=1,72=1,74=-13,124=41/1,2,3;
 4/5=5,16=3,69=1/1;
 5/5=2,38=5,53=1/2;
 7//1,2,3,16;
 1/18=20,19=15,26=3/3(-5);
 2/9=110/2;
 6/7=2,8=2,9=2,10=2,19=2,28=1/1;
 99/9=1/99;
 Leave Link    1 at Fri Mar 12 22:56:40 2021, MaxMem=  2684354560 cpu:               0.9 elap:               0.1
 (Enter /opt/g16avx/l101.exe)
 ---------------------------
 Vatsadze, way 2 prod 2 part
 ---------------------------
 Symbolic Z-matrix:
 Charge =  0 Multiplicity = 1
 C                    -1.70868   0.51919   0.15451 
 O                    -2.22465   0.42783   1.25308 
 O                    -2.31368  -0.14688  -0.96662 
 C                    -3.50943  -0.74081  -0.80082 
 O                    -3.66663  -1.91645  -1.01372 
 O                    -1.07449   1.60851  -0.33803 
 O                    -4.42894   0.13769  -0.46615 
 C                    -5.78771  -0.26011  -0.0997 
 C                    -6.42934   1.05834   0.29958 
 H                    -5.89989   1.50337   1.15445 
 H                    -6.40092   1.7699   -0.53846 
 H                    -7.47824   0.89444   0.58376 
 C                    -5.73395  -1.2167    1.08245 
 H                    -5.28149  -2.17586   0.80074 
 H                    -5.14801  -0.77294   1.90038 
 H                    -6.75415  -1.40468   1.44653 
 C                    -6.48878  -0.86268  -1.30789 
 H                    -6.46982  -0.1576   -2.15227 
 H                    -6.01052  -1.80111  -1.61466 
 H                    -7.53926  -1.06788  -1.0557 
 C                    -1.38061   2.94022   0.1592 
 C                    -2.87385   3.20863   0.024 
 H                    -3.19616   3.06478  -1.01776 
 H                    -3.45417   2.53045   0.66244 
 H                    -3.09424   4.24586   0.3161 
 C                    -0.90753   3.11051   1.59734 
 H                    -1.43988   2.42332   2.26574 
 H                     0.17249   2.91782   1.67569 
 H                    -1.09257   4.14456   1.92427 
 C                    -0.58405   3.84076  -0.77198 
 H                     0.48912   3.60675  -0.70646 
 H                    -0.90866   3.70163  -1.8135 
 H                    -0.72812   4.89544  -0.49695 
 
 ITRead=  0  0  0  0  0  0  0  0  0  0  0  0  0  0  0  0  0  0  0  0
 ITRead=  0  0  0  0  0  0  0  0  0  0  0  0  0
 MicOpt= -1 -1 -1 -1 -1 -1 -1 -1 -1 -1 -1 -1 -1 -1 -1 -1 -1 -1 -1 -1
 MicOpt= -1 -1 -1 -1 -1 -1 -1 -1 -1 -1 -1 -1 -1
 NAtoms=     33 NQM=       33 NQMF=       0 NMMI=      0 NMMIF=      0
                NMic=       0 NMicF=      0.
                    Isotopes and Nuclear Properties:
 (Nuclear quadrupole moments (NQMom) in fm**2, nuclear magnetic moments (NMagM)
  in nuclear magnetons)

  Atom         1           2           3           4           5           6           7           8           9          10
 IAtWgt=          12          16          16          12          16          16          16          12          12           1
 AtmWgt=  12.0000000  15.9949146  15.9949146  12.0000000  15.9949146  15.9949146  15.9949146  12.0000000  12.0000000   1.0078250
 NucSpn=           0           0           0           0           0           0           0           0           0           1
 AtZEff=  -0.0000000  -0.0000000  -0.0000000  -0.0000000  -0.0000000  -0.0000000  -0.0000000  -0.0000000  -0.0000000  -0.0000000
 NQMom=    0.0000000   0.0000000   0.0000000   0.0000000   0.0000000   0.0000000   0.0000000   0.0000000   0.0000000   0.0000000
 NMagM=    0.0000000   0.0000000   0.0000000   0.0000000   0.0000000   0.0000000   0.0000000   0.0000000   0.0000000   2.7928460
 AtZNuc=   6.0000000   8.0000000   8.0000000   6.0000000   8.0000000   8.0000000   8.0000000   6.0000000   6.0000000   1.0000000

  Atom        11          12          13          14          15          16          17          18          19          20
 IAtWgt=           1           1          12           1           1           1          12           1           1           1
 AtmWgt=   1.0078250   1.0078250  12.0000000   1.0078250   1.0078250   1.0078250  12.0000000   1.0078250   1.0078250   1.0078250
 NucSpn=           1           1           0           1           1           1           0           1           1           1
 AtZEff=  -0.0000000  -0.0000000  -0.0000000  -0.0000000  -0.0000000  -0.0000000  -0.0000000  -0.0000000  -0.0000000  -0.0000000
 NQMom=    0.0000000   0.0000000   0.0000000   0.0000000   0.0000000   0.0000000   0.0000000   0.0000000   0.0000000   0.0000000
 NMagM=    2.7928460   2.7928460   0.0000000   2.7928460   2.7928460   2.7928460   0.0000000   2.7928460   2.7928460   2.7928460
 AtZNuc=   1.0000000   1.0000000   6.0000000   1.0000000   1.0000000   1.0000000   6.0000000   1.0000000   1.0000000   1.0000000

  Atom        21          22          23          24          25          26          27          28          29          30
 IAtWgt=          12          12           1           1           1          12           1           1           1          12
 AtmWgt=  12.0000000  12.0000000   1.0078250   1.0078250   1.0078250  12.0000000   1.0078250   1.0078250   1.0078250  12.0000000
 NucSpn=           0           0           1           1           1           0           1           1           1           0
 AtZEff=  -0.0000000  -0.0000000  -0.0000000  -0.0000000  -0.0000000  -0.0000000  -0.0000000  -0.0000000  -0.0000000  -0.0000000
 NQMom=    0.0000000   0.0000000   0.0000000   0.0000000   0.0000000   0.0000000   0.0000000   0.0000000   0.0000000   0.0000000
 NMagM=    0.0000000   0.0000000   2.7928460   2.7928460   2.7928460   0.0000000   2.7928460   2.7928460   2.7928460   0.0000000
 AtZNuc=   6.0000000   6.0000000   1.0000000   1.0000000   1.0000000   6.0000000   1.0000000   1.0000000   1.0000000   6.0000000

  Atom        31          32          33
 IAtWgt=           1           1           1
 AtmWgt=   1.0078250   1.0078250   1.0078250
 NucSpn=           1           1           1
 AtZEff=  -0.0000000  -0.0000000  -0.0000000
 NQMom=    0.0000000   0.0000000   0.0000000
 NMagM=    2.7928460   2.7928460   2.7928460
 AtZNuc=   1.0000000   1.0000000   1.0000000
 Leave Link  101 at Fri Mar 12 22:56:40 2021, MaxMem=  2684354560 cpu:               3.5 elap:               0.4
 (Enter /opt/g16avx/l103.exe)

 GradGradGradGradGradGradGradGradGradGradGradGradGradGradGradGradGradGrad
 Berny optimization.
 Initialization pass.
                           ----------------------------
                           !    Initial Parameters    !
                           ! (Angstroms and Degrees)  !
 --------------------------                            --------------------------
 ! Name  Definition              Value          Derivative Info.                !
 --------------------------------------------------------------------------------
 ! R1    R(1,2)                  1.2171         estimate D2E/DX2                !
 ! R2    R(1,3)                  1.4376         estimate D2E/DX2                !
 ! R3    R(1,6)                  1.3533         estimate D2E/DX2                !
 ! R4    R(3,4)                  1.3454         estimate D2E/DX2                !
 ! R5    R(4,5)                  1.2051         estimate D2E/DX2                !
 ! R6    R(4,7)                  1.315          estimate D2E/DX2                !
 ! R7    R(6,21)                 1.4541         estimate D2E/DX2                !
 ! R8    R(7,8)                  1.4625         estimate D2E/DX2                !
 ! R9    R(8,9)                  1.5197         estimate D2E/DX2                !
 ! R10   R(8,13)                 1.5216         estimate D2E/DX2                !
 ! R11   R(8,17)                 1.5213         estimate D2E/DX2                !
 ! R12   R(9,10)                 1.0996         estimate D2E/DX2                !
 ! R13   R(9,11)                 1.0997         estimate D2E/DX2                !
 ! R14   R(9,12)                 1.099          estimate D2E/DX2                !
 ! R15   R(13,14)                1.0973         estimate D2E/DX2                !
 ! R16   R(13,15)                1.0997         estimate D2E/DX2                !
 ! R17   R(13,16)                1.0994         estimate D2E/DX2                !
 ! R18   R(17,18)                1.1002         estimate D2E/DX2                !
 ! R19   R(17,19)                1.097          estimate D2E/DX2                !
 ! R20   R(17,20)                1.0996         estimate D2E/DX2                !
 ! R21   R(21,22)                1.5232         estimate D2E/DX2                !
 ! R22   R(21,26)                1.5235         estimate D2E/DX2                !
 ! R23   R(21,30)                1.5207         estimate D2E/DX2                !
 ! R24   R(22,23)                1.0999         estimate D2E/DX2                !
 ! R25   R(22,24)                1.0974         estimate D2E/DX2                !
 ! R26   R(22,25)                1.0999         estimate D2E/DX2                !
 ! R27   R(26,27)                1.0965         estimate D2E/DX2                !
 ! R28   R(26,28)                1.0999         estimate D2E/DX2                !
 ! R29   R(26,29)                1.1002         estimate D2E/DX2                !
 ! R30   R(30,31)                1.1003         estimate D2E/DX2                !
 ! R31   R(30,32)                1.0998         estimate D2E/DX2                !
 ! R32   R(30,33)                1.0994         estimate D2E/DX2                !
 ! A1    A(2,1,3)              119.388          estimate D2E/DX2                !
 ! A2    A(2,1,6)              125.9854         estimate D2E/DX2                !
 ! A3    A(3,1,6)              106.6381         estimate D2E/DX2                !
 ! A4    A(1,3,4)              118.8473         estimate D2E/DX2                !
 ! A5    A(3,4,5)              121.6584         estimate D2E/DX2                !
 ! A6    A(3,4,7)              110.9718         estimate D2E/DX2                !
 ! A7    A(5,4,7)              127.2643         estimate D2E/DX2                !
 ! A8    A(1,6,21)             120.9358         estimate D2E/DX2                !
 ! A9    A(4,7,8)              122.1214         estimate D2E/DX2                !
 ! A10   A(7,8,9)              102.8337         estimate D2E/DX2                !
 ! A11   A(7,8,13)             109.4407         estimate D2E/DX2                !
 ! A12   A(7,8,17)             109.6883         estimate D2E/DX2                !
 ! A13   A(9,8,13)             110.8674         estimate D2E/DX2                !
 ! A14   A(9,8,17)             110.9615         estimate D2E/DX2                !
 ! A15   A(13,8,17)            112.5988         estimate D2E/DX2                !
 ! A16   A(8,9,10)             110.6153         estimate D2E/DX2                !
 ! A17   A(8,9,11)             110.5008         estimate D2E/DX2                !
 ! A18   A(8,9,12)             109.969          estimate D2E/DX2                !
 ! A19   A(10,9,11)            108.5491         estimate D2E/DX2                !
 ! A20   A(10,9,12)            108.5945         estimate D2E/DX2                !
 ! A21   A(11,9,12)            108.5546         estimate D2E/DX2                !
 ! A22   A(8,13,14)            111.3848         estimate D2E/DX2                !
 ! A23   A(8,13,15)            110.0593         estimate D2E/DX2                !
 ! A24   A(8,13,16)            109.3886         estimate D2E/DX2                !
 ! A25   A(14,13,15)           108.9043         estimate D2E/DX2                !
 ! A26   A(14,13,16)           108.553          estimate D2E/DX2                !
 ! A27   A(15,13,16)           108.4896         estimate D2E/DX2                !
 ! A28   A(8,17,18)            110.3487         estimate D2E/DX2                !
 ! A29   A(8,17,19)            111.1004         estimate D2E/DX2                !
 ! A30   A(8,17,20)            109.3905         estimate D2E/DX2                !
 ! A31   A(18,17,19)           109.0312         estimate D2E/DX2                !
 ! A32   A(18,17,20)           108.1833         estimate D2E/DX2                !
 ! A33   A(19,17,20)           108.722          estimate D2E/DX2                !
 ! A34   A(6,21,22)            109.7197         estimate D2E/DX2                !
 ! A35   A(6,21,26)            111.087          estimate D2E/DX2                !
 ! A36   A(6,21,30)            102.8663         estimate D2E/DX2                !
 ! A37   A(22,21,26)           111.6237         estimate D2E/DX2                !
 ! A38   A(22,21,30)           110.7817         estimate D2E/DX2                !
 ! A39   A(26,21,30)           110.437          estimate D2E/DX2                !
 ! A40   A(21,22,23)           110.3824         estimate D2E/DX2                !
 ! A41   A(21,22,24)           110.9697         estimate D2E/DX2                !
 ! A42   A(21,22,25)           109.8183         estimate D2E/DX2                !
 ! A43   A(23,22,24)           108.3748         estimate D2E/DX2                !
 ! A44   A(23,22,25)           108.4302         estimate D2E/DX2                !
 ! A45   A(24,22,25)           108.8034         estimate D2E/DX2                !
 ! A46   A(21,26,27)           110.7692         estimate D2E/DX2                !
 ! A47   A(21,26,28)           110.6454         estimate D2E/DX2                !
 ! A48   A(21,26,29)           109.4717         estimate D2E/DX2                !
 ! A49   A(27,26,28)           108.8749         estimate D2E/DX2                !
 ! A50   A(27,26,29)           109.0403         estimate D2E/DX2                !
 ! A51   A(28,26,29)           107.9782         estimate D2E/DX2                !
 ! A52   A(21,30,31)           110.3939         estimate D2E/DX2                !
 ! A53   A(21,30,32)           110.5104         estimate D2E/DX2                !
 ! A54   A(21,30,33)           110.2584         estimate D2E/DX2                !
 ! A55   A(31,30,32)           108.5038         estimate D2E/DX2                !
 ! A56   A(31,30,33)           108.476          estimate D2E/DX2                !
 ! A57   A(32,30,33)           108.6385         estimate D2E/DX2                !
 ! D1    D(2,1,3,4)              6.7532         estimate D2E/DX2                !
 ! D2    D(6,1,3,4)           -143.9537         estimate D2E/DX2                !
 ! D3    D(2,1,6,21)           -24.5716         estimate D2E/DX2                !
 ! D4    D(3,1,6,21)           123.6351         estimate D2E/DX2                !
 ! D5    D(1,3,4,5)           -121.6724         estimate D2E/DX2                !
 ! D6    D(1,3,4,7)             61.8065         estimate D2E/DX2                !
 ! D7    D(3,4,7,8)           -173.951          estimate D2E/DX2                !
 ! D8    D(5,4,7,8)              9.7702         estimate D2E/DX2                !
 ! D9    D(1,6,21,22)          -55.3809         estimate D2E/DX2                !
 ! D10   D(1,6,21,26)           68.5215         estimate D2E/DX2                !
 ! D11   D(1,6,21,30)         -173.3173         estimate D2E/DX2                !
 ! D12   D(4,7,8,9)            175.8323         estimate D2E/DX2                !
 ! D13   D(4,7,8,13)            57.9388         estimate D2E/DX2                !
 ! D14   D(4,7,8,17)           -66.0552         estimate D2E/DX2                !
 ! D15   D(7,8,9,10)           -61.1141         estimate D2E/DX2                !
 ! D16   D(7,8,9,11)            59.1188         estimate D2E/DX2                !
 ! D17   D(7,8,9,12)           178.9413         estimate D2E/DX2                !
 ! D18   D(13,8,9,10)           55.7687         estimate D2E/DX2                !
 ! D19   D(13,8,9,11)          176.0016         estimate D2E/DX2                !
 ! D20   D(13,8,9,12)          -64.176          estimate D2E/DX2                !
 ! D21   D(17,8,9,10)         -178.3269         estimate D2E/DX2                !
 ! D22   D(17,8,9,11)          -58.094          estimate D2E/DX2                !
 ! D23   D(17,8,9,12)           61.7285         estimate D2E/DX2                !
 ! D24   D(7,8,13,14)          -67.8524         estimate D2E/DX2                !
 ! D25   D(7,8,13,15)           53.0381         estimate D2E/DX2                !
 ! D26   D(7,8,13,16)          172.1434         estimate D2E/DX2                !
 ! D27   D(9,8,13,14)          179.4022         estimate D2E/DX2                !
 ! D28   D(9,8,13,15)          -59.7073         estimate D2E/DX2                !
 ! D29   D(9,8,13,16)           59.398          estimate D2E/DX2                !
 ! D30   D(17,8,13,14)          54.4169         estimate D2E/DX2                !
 ! D31   D(17,8,13,15)         175.3074         estimate D2E/DX2                !
 ! D32   D(17,8,13,16)         -65.5874         estimate D2E/DX2                !
 ! D33   D(7,8,17,18)          -55.5179         estimate D2E/DX2                !
 ! D34   D(7,8,17,19)           65.5393         estimate D2E/DX2                !
 ! D35   D(7,8,17,20)         -174.4244         estimate D2E/DX2                !
 ! D36   D(9,8,17,18)           57.4186         estimate D2E/DX2                !
 ! D37   D(9,8,17,19)          178.4759         estimate D2E/DX2                !
 ! D38   D(9,8,17,20)          -61.4878         estimate D2E/DX2                !
 ! D39   D(13,8,17,18)        -177.6474         estimate D2E/DX2                !
 ! D40   D(13,8,17,19)         -56.5902         estimate D2E/DX2                !
 ! D41   D(13,8,17,20)          63.4461         estimate D2E/DX2                !
 ! D42   D(6,21,22,23)         -55.5265         estimate D2E/DX2                !
 ! D43   D(6,21,22,24)          64.6416         estimate D2E/DX2                !
 ! D44   D(6,21,22,25)        -175.0249         estimate D2E/DX2                !
 ! D45   D(26,21,22,23)       -179.1148         estimate D2E/DX2                !
 ! D46   D(26,21,22,24)        -58.9467         estimate D2E/DX2                !
 ! D47   D(26,21,22,25)         61.3868         estimate D2E/DX2                !
 ! D48   D(30,21,22,23)         57.3681         estimate D2E/DX2                !
 ! D49   D(30,21,22,24)        177.5362         estimate D2E/DX2                !
 ! D50   D(30,21,22,25)        -62.1303         estimate D2E/DX2                !
 ! D51   D(6,21,26,27)         -63.3811         estimate D2E/DX2                !
 ! D52   D(6,21,26,28)          57.4576         estimate D2E/DX2                !
 ! D53   D(6,21,26,29)         176.3432         estimate D2E/DX2                !
 ! D54   D(22,21,26,27)         59.43           estimate D2E/DX2                !
 ! D55   D(22,21,26,28)       -179.7313         estimate D2E/DX2                !
 ! D56   D(22,21,26,29)        -60.8457         estimate D2E/DX2                !
 ! D57   D(30,21,26,27)       -176.858          estimate D2E/DX2                !
 ! D58   D(30,21,26,28)        -56.0192         estimate D2E/DX2                !
 ! D59   D(30,21,26,29)         62.8663         estimate D2E/DX2                !
 ! D60   D(6,21,30,31)         -59.9688         estimate D2E/DX2                !
 ! D61   D(6,21,30,32)          60.07           estimate D2E/DX2                !
 ! D62   D(6,21,30,33)        -179.8109         estimate D2E/DX2                !
 ! D63   D(22,21,30,31)       -177.1545         estimate D2E/DX2                !
 ! D64   D(22,21,30,32)        -57.1157         estimate D2E/DX2                !
 ! D65   D(22,21,30,33)         63.0034         estimate D2E/DX2                !
 ! D66   D(26,21,30,31)         58.6483         estimate D2E/DX2                !
 ! D67   D(26,21,30,32)        178.6871         estimate D2E/DX2                !
 ! D68   D(26,21,30,33)        -61.1938         estimate D2E/DX2                !
 --------------------------------------------------------------------------------
 Trust Radius=3.00D-01 FncErr=1.00D-07 GrdErr=1.00D-06 EigMax=2.50D+02 EigMin=1.00D-04
 Number of steps in this run=    167 maximum allowed number of steps=    198.
 GradGradGradGradGradGradGradGradGradGradGradGradGradGradGradGradGradGrad

 Leave Link  103 at Fri Mar 12 22:56:40 2021, MaxMem=  2684354560 cpu:               0.1 elap:               0.0
 (Enter /opt/g16avx/l202.exe)
                          Input orientation:                          
 ---------------------------------------------------------------------
 Center     Atomic      Atomic             Coordinates (Angstroms)
 Number     Number       Type             X           Y           Z
 ---------------------------------------------------------------------
      1          6           0       -1.708676    0.519186    0.154514
      2          8           0       -2.224648    0.427833    1.253081
      3          8           0       -2.313681   -0.146875   -0.966616
      4          6           0       -3.509433   -0.740813   -0.800818
      5          8           0       -3.666634   -1.916445   -1.013719
      6          8           0       -1.074488    1.608511   -0.338033
      7          8           0       -4.428938    0.137688   -0.466151
      8          6           0       -5.787714   -0.260112   -0.099700
      9          6           0       -6.429341    1.058344    0.299582
     10          1           0       -5.899889    1.503371    1.154452
     11          1           0       -6.400916    1.769903   -0.538455
     12          1           0       -7.478236    0.894442    0.583758
     13          6           0       -5.733946   -1.216695    1.082449
     14          1           0       -5.281489   -2.175861    0.800739
     15          1           0       -5.148007   -0.772937    1.900381
     16          1           0       -6.754145   -1.404681    1.446525
     17          6           0       -6.488780   -0.862684   -1.307891
     18          1           0       -6.469821   -0.157604   -2.152267
     19          1           0       -6.010521   -1.801109   -1.614657
     20          1           0       -7.539261   -1.067878   -1.055697
     21          6           0       -1.380613    2.940223    0.159195
     22          6           0       -2.873853    3.208632    0.023996
     23          1           0       -3.196157    3.064783   -1.017762
     24          1           0       -3.454172    2.530447    0.662439
     25          1           0       -3.094238    4.245861    0.316098
     26          6           0       -0.907529    3.110514    1.597341
     27          1           0       -1.439875    2.423324    2.265743
     28          1           0        0.172487    2.917824    1.675694
     29          1           0       -1.092571    4.144555    1.924268
     30          6           0       -0.584053    3.840756   -0.771984
     31          1           0        0.489117    3.606754   -0.706455
     32          1           0       -0.908659    3.701627   -1.813503
     33          1           0       -0.728116    4.895435   -0.496946
 ---------------------------------------------------------------------
                    Distance matrix (angstroms):
                    1          2          3          4          5
     1  C    0.000000
     2  O    1.217137   0.000000
     3  O    1.437568   2.294618   0.000000
     4  C    2.396452   2.689778   1.345390   0.000000
     5  O    3.336265   3.565578   2.228021   1.205052   0.000000
     6  O    1.353302   2.290963   2.238771   3.415033   4.427312
     7  O    2.816131   2.810487   2.192203   1.315012   2.258407
     8  C    4.160587   3.872819   3.582356   2.431708   2.842156
     9  C    4.753569   4.357310   4.471517   3.601903   4.266929
    10  H    4.419815   3.830653   4.481420   3.817555   4.624233
    11  H    4.905264   4.738351   4.534628   3.838385   4.614254
    12  H    5.797662   5.316569   5.491869   4.510267   4.998132
    13  C    4.480753   3.879273   4.128122   2.953238   3.026111
    14  H    4.521712   4.040806   4.006022   2.786491   2.442808
    15  H    4.067755   3.225969   4.079832   3.159499   3.463243
    16  H    5.552235   4.889977   5.207979   4.002428   3.980883
    17  C    5.186288   5.138758   4.249741   3.024646   3.026790
    18  H    5.333647   5.473630   4.321965   3.306122   3.499667
    19  H    5.198039   5.246421   4.101594   2.835843   2.422444
    20  H    6.162719   5.984373   5.306870   4.051105   3.964728
    21  C    2.443167   2.867243   3.415881   4.359303   5.494437
    22  C    2.933904   3.108852   3.543238   4.084409   5.288834
    23  H    3.172837   3.613041   3.331085   3.824626   5.003399
    24  H    2.711073   2.506307   3.335055   3.584036   4.757047
    25  H    3.979196   4.026346   4.642279   5.127066   6.330092
    26  C    3.072225   3.008338   4.377410   5.230085   6.300842
    27  H    2.855746   2.371358   4.221090   4.868124   5.877663
    28  H    3.406791   3.482085   4.749233   5.751110   6.733643
    29  H    4.081043   3.942856   5.316455   6.093778   7.210637
    30  C    3.627120   4.294238   4.350942   5.435941   6.534991
    31  H    3.886469   4.616258   4.691811   5.907508   6.918844
    32  H    3.826362   4.674772   4.183572   5.246411   6.309423
    33  H    4.531827   5.026099   5.306552   6.292484   7.436642
                    6          7          8          9         10
     6  O    0.000000
     7  O    3.664979   0.000000
     8  C    5.075732   1.462465   0.000000
     9  C    5.420672   2.331430   1.519683   0.000000
    10  H    5.052035   2.579756   2.166876   1.099623   0.000000
    11  H    5.332640   2.560869   2.165522   1.099741   1.785498
    12  H    6.509038   3.312583   2.158234   1.099000   1.785403
    13  C    5.631173   2.436301   1.521650   2.504448   2.726074
    14  H    5.772099   2.772068   2.176499   3.468257   3.747570
    15  H    5.222581   2.635673   2.161606   2.749175   2.510640
    16  H    6.672517   3.382871   2.152868   2.736324   3.044967
    17  C    6.030090   2.439717   1.521286   2.505564   3.465277
    18  H    5.959885   2.663717   2.165366   2.737103   3.744069
    19  H    6.133490   2.753072   2.172420   3.466438   4.312748
    20  H    7.033590   3.387486   2.152750   2.754909   3.766115
    21  C    1.454099   4.187785   5.452679   5.389882   4.845507
    22  C    2.434988   3.476957   4.531895   4.164274   3.652772
    23  H    2.661623   3.223648   4.314387   4.026745   3.803510
    24  H    2.741132   2.819429   3.716651   3.339219   2.697868
    25  H    3.385689   4.389809   5.266070   4.613399   4.011953
    26  C    2.455516   5.049358   6.169058   6.032080   5.263337
    27  H    2.752649   4.649933   5.630262   5.533871   4.687537
    28  H    2.706352   5.787034   6.983931   6.995390   6.256686
    29  H    3.398507   5.735890   6.748474   6.375376   5.538842
    30  C    2.326318   5.346904   6.659367   6.561819   6.118222
    31  H    2.563898   6.023241   7.397257   7.441207   6.979011
    32  H    2.566251   5.187425   6.514420   6.475338   6.209144
    33  H    3.308942   6.027702   7.234432   6.918214   6.401597
                   11         12         13         14         15
    11  H    0.000000
    12  H    1.785052   0.000000
    13  C    3.462939   2.783548   0.000000
    14  H    4.314581   3.781473   1.097305   0.000000
    15  H    3.739484   3.153350   1.099663   1.787519   0.000000
    16  H    3.760705   2.560203   1.099407   1.783388   1.784591
    17  C    2.744133   2.764932   2.531565   2.761939   3.478324
    18  H    2.514840   3.099925   3.482323   3.769050   4.306946
    19  H    3.750033   3.775343   2.773520   2.550699   3.762520
    20  H    3.101027   2.557780   2.802316   3.125942   3.813592
    21  C    5.201904   6.445656   6.089653   6.465503   5.568891
    22  C    3.850515   5.183546   5.374381   5.949185   4.954340
    23  H    3.489546   5.060775   5.402066   5.926205   5.201286
    24  H    3.271678   4.344628   4.406229   5.050500   3.913301
    25  H    4.218382   5.524771   6.115135   6.801284   5.649447
    26  C    6.044515   7.008032   6.502627   6.907377   5.758010
    27  H    5.736063   6.452004   5.752301   6.169014   4.909156
    28  H    7.030633   7.988740   7.234096   7.513789   6.479186
    29  H    6.315260   7.289507   7.141010   7.665312   6.374077
    30  C    6.178905   7.618961   7.452391   7.793526   7.018360
    31  H    7.132657   8.514693   8.074178   8.307236   7.599635
    32  H    5.960050   7.535681   7.473943   7.778224   7.196300
    33  H    6.476985   7.920858   8.056734   8.510019   7.577140
                   16         17         18         19         20
    16  H    0.000000
    17  C    2.819749   0.000000
    18  H    3.819338   1.100213   0.000000
    19  H    3.175054   1.097032   1.789159   0.000000
    20  H    2.644042   1.099644   1.781787   1.785248   0.000000
    21  C    7.029243   6.535122   6.390573   6.860235   7.447804
    22  C    6.193780   5.605108   5.385040   6.133627   6.420304
    23  H    6.221583   5.133278   4.731570   5.652772   5.995238
    24  H    5.195175   4.960281   4.923650   5.521093   5.708580
    25  H    6.826522   6.344879   6.072717   6.985583   7.062285
    26  C    7.388684   7.441575   7.461853   7.776985   8.275110
    27  H    6.600470   7.004295   7.174981   7.334449   7.773221
    28  H    8.167913   8.219884   8.260254   8.445373   9.100405
    29  H    7.942020   8.039799   8.002595   8.488883   8.809623
    30  C    8.396811   7.568048   7.248057   7.873201   8.517635
    31  H    9.067229   8.308348   8.042859   8.503829   9.296720
    32  H    8.418543   7.226779   6.777533   7.506573   8.202886
    33  H    8.932053   8.185280   7.825629   8.602138   9.070006
                   21         22         23         24         25
    21  C    0.000000
    22  C    1.523183   0.000000
    23  H    2.167243   1.099924   0.000000
    24  H    2.172744   1.097413   1.781898   0.000000
    25  H    2.160051   1.099881   1.784521   1.786659   0.000000
    26  C    1.523506   2.520213   3.475439   2.774150   2.777101
    27  H    2.169848   2.774605   3.778545   2.576713   3.140012
    28  H    2.170804   3.477479   4.315561   3.785420   3.779375
    29  H    2.156123   2.767662   3.774457   3.126454   2.569658
    30  C    1.520711   2.505264   2.735988   3.465842   2.765694
    31  H    2.165526   3.464336   3.737899   4.310665   3.780808
    32  H    2.166567   2.735221   2.504281   3.739196   3.099701
    33  H    2.163129   2.778646   3.116691   3.790610   2.584864
                   26         27         28         29         30
    26  C    0.000000
    27  H    1.096533   0.000000
    28  H    1.099865   1.786729   0.000000
    29  H    1.100165   1.788816   1.779615   0.000000
    30  C    2.500318   3.459672   2.723102   2.760554   0.000000
    31  H    2.739407   3.735703   2.499903   3.116355   1.100339
    32  H    3.461686   4.307725   3.736003   3.768414   1.099767
    33  H    2.757566   3.774968   3.072848   2.561040   1.099431
                   31         32         33
    31  H    0.000000
    32  H    1.785591   0.000000
    33  H    1.785007   1.786364   0.000000
 Stoichiometry    C10H18O5
 Framework group  C1[X(C10H18O5)]
 Deg. of freedom    93
 Full point group                 C1      NOp   1
 Largest Abelian subgroup         C1      NOp   1
 Largest concise Abelian subgroup C1      NOp   1
                         Standard orientation:                         
 ---------------------------------------------------------------------
 Center     Atomic      Atomic             Coordinates (Angstroms)
 Number     Number       Type             X           Y           Z
 ---------------------------------------------------------------------
      1          6           0        1.073327   -1.189027    0.438734
      2          8           0        0.711410   -0.654817    1.470750
      3          8           0        0.090287   -1.589191   -0.530855
      4          6           0       -1.194122   -1.239739   -0.335274
      5          8           0       -2.069445   -2.064473   -0.259297
      6          8           0        2.203418   -0.905320   -0.249620
      7          8           0       -1.329154    0.068249   -0.321486
      8          6           0       -2.599984    0.715428    0.002479
      9          6           0       -2.238839    2.191552   -0.005855
     10          1           0       -1.475702    2.407737    0.755760
     11          1           0       -1.844787    2.486108   -0.989415
     12          1           0       -3.130232    2.797250    0.209432
     13          6           0       -3.053554    0.276198    1.386953
     14          1           0       -3.326632   -0.786503    1.400096
     15          1           0       -2.250602    0.446795    2.118680
     16          1           0       -3.930802    0.866547    1.687983
     17          6           0       -3.625413    0.399933   -1.076071
     18          1           0       -3.243305    0.693994   -2.065005
     19          1           0       -3.867688   -0.669923   -1.089830
     20          1           0       -4.546627    0.967968   -0.881342
     21          6           0        2.841605    0.396218   -0.135076
     22          6           0        1.839346    1.491747   -0.474753
     23          1           0        1.408926    1.321243   -1.472500
     24          1           0        1.020718    1.515351    0.255730
     25          1           0        2.342141    2.469977   -0.475487
     26          6           0        3.439945    0.593137    1.252109
     27          1           0        2.655502    0.587786    2.018272
     28          1           0        4.164063   -0.203110    1.478709
     29          1           0        3.971188    1.555829    1.289077
     30          6           0        3.941532    0.327423   -1.182926
     31          1           0        4.633402   -0.498342   -0.958928
     32          1           0        3.512298    0.161903   -2.181850
     33          1           0        4.512956    1.266581   -1.197235
 ---------------------------------------------------------------------
 Rotational constants (GHZ):           1.1020325           0.3498055           0.3179215
 Leave Link  202 at Fri Mar 12 22:56:41 2021, MaxMem=  2684354560 cpu:               0.1 elap:               0.0
 (Enter /opt/g16avx/l301.exe)
 Standard basis: def2SVP (5D, 7F)
 Ernie: Thresh=  0.10000D-02 Tol=  0.10000D-05 Strict=F.
 There are   315 symmetry adapted cartesian basis functions of A   symmetry.
 There are   300 symmetry adapted basis functions of A   symmetry.
   300 basis functions,   501 primitive gaussians,   315 cartesian basis functions
    59 alpha electrons       59 beta electrons
       nuclear repulsion energy      1135.9014530829 Hartrees.
 IExCor= 1009 DFT=T Ex+Corr=PBE1PBE ExCW=0 ScaHFX=  0.250000
 ScaDFX=  0.750000  0.750000  1.000000  1.000000 ScalE2=  1.000000  1.000000
 IRadAn=      5 IRanWt=     -1 IRanGd=            0 ICorTp=0 IEmpDi=141
 NAtoms=   33 NActive=   33 NUniq=   33 SFac= 1.00D+00 NAtFMM=   60 NAOKFM=F Big=F
 Integral buffers will be    131072 words long.
 Raffenetti 2 integral format.
 Two-electron integral symmetry is turned on.
 R6Disp:  Grimme-D3(BJ) Dispersion energy=       -0.0298494992 Hartrees.
 Nuclear repulsion after empirical dispersion term =     1135.8716035836 Hartrees.
 ------------------------------------------------------------------------------
 Polarizable Continuum Model (PCM)
 =================================
 Model                : PCM.
 Atomic radii         : SMD-Coulomb.
 Polarization charges : Total charges.
 Charge compensation  : None.
 Solution method      : On-the-fly selection.
 Cavity type          : VdW (van der Waals Surface) (Alpha=1.000).
 Cavity algorithm     : GePol (No added spheres)
                        Default sphere list used, NSphG=   33.
                        Lebedev-Laikov grids with approx.  5.0 points / Ang**2.
                        Smoothing algorithm: York/Karplus (Gamma=1.0000).
                        Polarization charges: spherical gaussians, with
                                              point-specific exponents (IZeta= 3).
                        Self-potential: point-specific (ISelfS= 7).
                        Self-field    : sphere-specific E.n sum rule (ISelfD= 2).
 1st derivatives      : Analytical E(r).r(x)/FMM algorithm (CHGder, D1EAlg=3).
                        Cavity 1st derivative terms included.
 Solvent              : Water, Eps=  78.355300 Eps(inf)=   1.777849
 ------------------------------------------------------------------------------
 GePol: Number of generator spheres                  =      33
 GePol: Total number of spheres                      =      33
 GePol: Number of exposed spheres                    =      33 (100.00%)
 GePol: Number of points                             =    2264
 GePol: Average weight of points                     =       0.12
 GePol: Minimum weight of points                     =   0.48D-08
 GePol: Maximum weight of points                     =    0.21991
 GePol: Number of points with low weight             =     128
 GePol: Fraction of low-weight points (<1% of avg)   =       5.65%
 GePol: Cavity surface area                          =    263.294 Ang**2
 GePol: Cavity volume                                =    221.832 Ang**3
 ------------------------------------------------------------------------------
 Atomic radii for non-electrostatic terms: SMD-CDS.
 ------------------------------------------------------------------------------
 PCM non-electrostatic energy =         0.0142394466 Hartrees.
 Nuclear repulsion after PCM non-electrostatic terms =     1135.8858430302 Hartrees.
 Leave Link  301 at Fri Mar 12 22:56:41 2021, MaxMem=  2684354560 cpu:               1.0 elap:               0.1
 (Enter /opt/g16avx/l302.exe)
 NPDir=0 NMtPBC=     1 NCelOv=     1 NCel=       1 NClECP=     1 NCelD=      1
         NCelK=      1 NCelE2=     1 NClLst=     1 CellRange=     0.0.
 One-electron integrals computed using PRISM.
 One-electron integral symmetry used in STVInt
   1 Symmetry operations used in ECPInt.
 ECPInt:  NShTT=   10440 NPrTT=   36834 LenC2=    9802 LenP2D=   25120.
 LDataN:  DoStor=T MaxTD1= 4 Len=   56
 NBasis=   300 RedAO= T EigKep=  1.60D-03  NBF=   300
 NBsUse=   300 1.00D-06 EigRej= -1.00D+00 NBFU=   300
 Precomputing XC quadrature grid using
 IXCGrd= 4 IRadAn=           5 IRanWt=          -1 IRanGd=           0 AccXCQ= 0.00D+00.
 Generated NRdTot=       0 NPtTot=           0 NUsed=           0 NTot=          32
 NSgBfM=   314   314   314   314   314 MxSgAt=    33 MxSgA2=    33.
 Leave Link  302 at Fri Mar 12 22:56:41 2021, MaxMem=  2684354560 cpu:               6.3 elap:               0.6
 (Enter /opt/g16avx/l303.exe)
 DipDrv:  MaxL=1.
 Leave Link  303 at Fri Mar 12 22:56:41 2021, MaxMem=  2684354560 cpu:               0.5 elap:               0.1
 (Enter /opt/g16avx/l401.exe)
 ExpMin= 1.22D-01 ExpMax= 2.27D+03 ExpMxC= 3.41D+02 IAcc=3 IRadAn=         5 AccDes= 0.00D+00
 Harris functional with IExCor= 1009 and IRadAn=       5 diagonalized for initial guess.
 HarFok:  IExCor= 1009 AccDes= 0.00D+00 IRadAn=         5 IDoV= 1 UseB2=F ITyADJ=14
 ICtDFT=  3500011 ScaDFX=  1.000000  1.000000  1.000000  1.000000
 FoFCou: FMM=F IPFlag=           0 FMFlag=      100000 FMFlg1=           0
         NFxFlg=           0 DoJE=T BraDBF=F KetDBF=T FulRan=T
         wScrn=  0.000000 ICntrl=       500 IOpCl=  0 I1Cent=   200000004 NGrid=           0
         NMat0=    1 NMatS0=      1 NMatT0=    0 NMatD0=    1 NMtDS0=    0 NMtDT0=    0
 Petite list used in FoFCou.
 Harris En= -766.888885812707    
 JPrj=0 DoOrth=F DoCkMO=F.
 Leave Link  401 at Fri Mar 12 22:56:44 2021, MaxMem=  2684354560 cpu:              26.9 elap:               2.7
 (Enter /opt/g16avx/l502.exe)
 Integral symmetry usage will be decided dynamically.
 Closed shell SCF:
 Using DIIS extrapolation, IDIIS=  1040.
 NGot=  2684354560 LenX=  2684149431 LenY=  2684049765
 Requested convergence on RMS density matrix=1.00D-08 within 128 cycles.
 Requested convergence on MAX density matrix=1.00D-06.
 Requested convergence on             energy=1.00D-06.
 No special actions if energy rises.
 Fock matrices will be formed incrementally for  20 cycles.

 Cycle   1  Pass 1  IDiag  1:
 FoFJK:  IHMeth= 1 ICntrl=       0 DoSepK=F KAlg= 0 I1Cent=           0 FoldK=F
 IRaf= 880000000 NMat=       1 IRICut=       1 DoRegI=T DoRafI=F ISym2E= 0 IDoP0=0 IntGTp=1.
 FoFCou: FMM=F IPFlag=           0 FMFlag=      100000 FMFlg1=           0
         NFxFlg=           0 DoJE=F BraDBF=F KetDBF=F FulRan=T
         wScrn=  0.000000 ICntrl=         0 IOpCl=  0 I1Cent=           0 NGrid=           0
         NMat0=    1 NMatS0=      1 NMatT0=    0 NMatD0=    1 NMtDS0=    0 NMtDT0=    0
 Symmetry not used in FoFCou.
 Inv3:  Mode=1 IEnd=    15377088.
 Iteration    1 A*A^-1 deviation from unit magnitude is 3.55D-15 for    926.
 Iteration    1 A*A^-1 deviation from orthogonality  is 3.01D-15 for   1688    578.
 Iteration    1 A^-1*A deviation from unit magnitude is 3.55D-15 for    926.
 Iteration    1 A^-1*A deviation from orthogonality  is 8.42D-14 for   2192   2158.
 E= -766.188442693847    
 DIIS: error= 2.31D-02 at cycle   1 NSaved=   1.
 NSaved= 1 IEnMin= 1 EnMin= -766.188442693847     IErMin= 1 ErrMin= 2.31D-02
 ErrMax= 2.31D-02  0.00D+00 EMaxC= 1.00D-01 BMatC= 5.01D-01 BMatP= 5.01D-01
 IDIUse=3 WtCom= 7.69D-01 WtEn= 2.31D-01
 Coeff-Com:  0.100D+01
 Coeff-En:   0.100D+01
 Coeff:      0.100D+01
 Gap=     0.174 Goal=   None    Shift=    0.000
 GapD=    0.174 DampG=1.000 DampE=0.500 DampFc=0.5000 IDamp=-1.
 Damping current iteration by 5.00D-01
 RMSDP=4.50D-03 MaxDP=1.83D-01              OVMax= 1.80D-01

 Cycle   2  Pass 1  IDiag  1:
 RMSU=  2.23D-03    CP:  9.82D-01
 E= -766.361108426304     Delta-E=       -0.172665732458 Rises=F Damp=T
 DIIS: error= 9.88D-03 at cycle   2 NSaved=   2.
 NSaved= 2 IEnMin= 2 EnMin= -766.361108426304     IErMin= 2 ErrMin= 9.88D-03
 ErrMax= 9.88D-03  0.00D+00 EMaxC= 1.00D-01 BMatC= 4.39D-02 BMatP= 5.01D-01
 IDIUse=3 WtCom= 9.01D-01 WtEn= 9.88D-02
 Coeff-Com:  0.154D+00 0.846D+00
 Coeff-En:   0.241D+00 0.759D+00
 Coeff:      0.163D+00 0.837D+00
 Gap=     0.242 Goal=   None    Shift=    0.000
 RMSDP=1.15D-03 MaxDP=5.91D-02 DE=-1.73D-01 OVMax= 1.44D-01

 Cycle   3  Pass 1  IDiag  1:
 RMSU=  1.12D-03    CP:  9.79D-01  8.84D-01
 E= -766.614971268618     Delta-E=       -0.253862842314 Rises=F Damp=F
 DIIS: error= 1.04D-02 at cycle   3 NSaved=   3.
 NSaved= 3 IEnMin= 3 EnMin= -766.614971268618     IErMin= 2 ErrMin= 9.88D-03
 ErrMax= 1.04D-02  0.00D+00 EMaxC= 1.00D-01 BMatC= 4.57D-02 BMatP= 4.39D-02
 IDIUse=3 WtCom= 8.96D-01 WtEn= 1.04D-01
 Coeff-Com:  0.522D-01 0.504D+00 0.443D+00
 Coeff-En:   0.000D+00 0.000D+00 0.100D+01
 Coeff:      0.468D-01 0.452D+00 0.501D+00
 Gap=     0.254 Goal=   None    Shift=    0.000
 RMSDP=6.95D-04 MaxDP=4.20D-02 DE=-2.54D-01 OVMax= 4.43D-02

 Cycle   4  Pass 1  IDiag  1:
 RMSU=  4.61D-04    CP:  9.82D-01  9.10D-01  5.42D-01
 E= -766.648350564791     Delta-E=       -0.033379296173 Rises=F Damp=F
 DIIS: error= 3.44D-03 at cycle   4 NSaved=   4.
 NSaved= 4 IEnMin= 4 EnMin= -766.648350564791     IErMin= 4 ErrMin= 3.44D-03
 ErrMax= 3.44D-03  0.00D+00 EMaxC= 1.00D-01 BMatC= 4.57D-03 BMatP= 4.39D-02
 IDIUse=3 WtCom= 9.66D-01 WtEn= 3.44D-02
 Coeff-Com:  0.252D-02 0.651D-01 0.252D+00 0.681D+00
 Coeff-En:   0.000D+00 0.000D+00 0.668D-01 0.933D+00
 Coeff:      0.244D-02 0.628D-01 0.245D+00 0.689D+00
 Gap=     0.244 Goal=   None    Shift=    0.000
 RMSDP=1.91D-04 MaxDP=1.17D-02 DE=-3.34D-02 OVMax= 1.09D-02

 Cycle   5  Pass 1  IDiag  1:
 RMSU=  1.02D-04    CP:  9.82D-01  9.02D-01  6.38D-01  7.41D-01
 E= -766.651566469087     Delta-E=       -0.003215904296 Rises=F Damp=F
 DIIS: error= 6.22D-04 at cycle   5 NSaved=   5.
 NSaved= 5 IEnMin= 5 EnMin= -766.651566469087     IErMin= 5 ErrMin= 6.22D-04
 ErrMax= 6.22D-04  0.00D+00 EMaxC= 1.00D-01 BMatC= 3.57D-04 BMatP= 4.57D-03
 IDIUse=3 WtCom= 9.94D-01 WtEn= 6.22D-03
 Coeff-Com: -0.165D-02 0.684D-02 0.104D+00 0.374D+00 0.517D+00
 Coeff-En:   0.000D+00 0.000D+00 0.000D+00 0.000D+00 0.100D+01
 Coeff:     -0.164D-02 0.680D-02 0.103D+00 0.372D+00 0.520D+00
 Gap=     0.246 Goal=   None    Shift=    0.000
 RMSDP=5.23D-05 MaxDP=2.48D-03 DE=-3.22D-03 OVMax= 2.67D-03

 Cycle   6  Pass 1  IDiag  1:
 RMSU=  2.92D-05    CP:  9.81D-01  9.05D-01  6.38D-01  7.81D-01  6.21D-01
 E= -766.651837877455     Delta-E=       -0.000271408368 Rises=F Damp=F
 DIIS: error= 1.21D-04 at cycle   6 NSaved=   6.
 NSaved= 6 IEnMin= 6 EnMin= -766.651837877455     IErMin= 6 ErrMin= 1.21D-04
 ErrMax= 1.21D-04  0.00D+00 EMaxC= 1.00D-01 BMatC= 1.31D-05 BMatP= 3.57D-04
 IDIUse=3 WtCom= 9.99D-01 WtEn= 1.21D-03
 Coeff-Com: -0.106D-02-0.116D-02 0.300D-01 0.120D+00 0.236D+00 0.617D+00
 Coeff-En:   0.000D+00 0.000D+00 0.000D+00 0.000D+00 0.000D+00 0.100D+01
 Coeff:     -0.106D-02-0.115D-02 0.299D-01 0.120D+00 0.235D+00 0.617D+00
 Gap=     0.246 Goal=   None    Shift=    0.000
 RMSDP=1.23D-05 MaxDP=6.57D-04 DE=-2.71D-04 OVMax= 6.26D-04

 Cycle   7  Pass 1  IDiag  1:
 RMSU=  8.66D-06    CP:  9.81D-01  9.05D-01  6.39D-01  7.82D-01  6.34D-01
                    CP:  7.13D-01
 E= -766.651846654383     Delta-E=       -0.000008776928 Rises=F Damp=F
 DIIS: error= 5.87D-05 at cycle   7 NSaved=   7.
 NSaved= 7 IEnMin= 7 EnMin= -766.651846654383     IErMin= 7 ErrMin= 5.87D-05
 ErrMax= 5.87D-05  0.00D+00 EMaxC= 1.00D-01 BMatC= 1.73D-06 BMatP= 1.31D-05
 IDIUse=1 WtCom= 1.00D+00 WtEn= 0.00D+00
 Coeff-Com: -0.517D-03-0.105D-02 0.941D-02 0.398D-01 0.953D-01 0.341D+00
 Coeff-Com:  0.516D+00
 Coeff:     -0.517D-03-0.105D-02 0.941D-02 0.398D-01 0.953D-01 0.341D+00
 Coeff:      0.516D+00
 Gap=     0.246 Goal=   None    Shift=    0.000
 RMSDP=3.97D-06 MaxDP=2.16D-04 DE=-8.78D-06 OVMax= 2.30D-04

 Cycle   8  Pass 1  IDiag  1:
 RMSU=  2.90D-06    CP:  9.81D-01  9.05D-01  6.39D-01  7.83D-01  6.37D-01
                    CP:  7.47D-01  7.19D-01
 E= -766.651847847090     Delta-E=       -0.000001192706 Rises=F Damp=F
 DIIS: error= 1.61D-05 at cycle   8 NSaved=   8.
 NSaved= 8 IEnMin= 8 EnMin= -766.651847847090     IErMin= 8 ErrMin= 1.61D-05
 ErrMax= 1.61D-05  0.00D+00 EMaxC= 1.00D-01 BMatC= 1.66D-07 BMatP= 1.73D-06
 IDIUse=1 WtCom= 1.00D+00 WtEn= 0.00D+00
 Coeff-Com: -0.157D-03-0.337D-03 0.128D-02 0.585D-02 0.214D-01 0.101D+00
 Coeff-Com:  0.273D+00 0.598D+00
 Coeff:     -0.157D-03-0.337D-03 0.128D-02 0.585D-02 0.214D-01 0.101D+00
 Coeff:      0.273D+00 0.598D+00
 Gap=     0.246 Goal=   None    Shift=    0.000
 RMSDP=1.30D-06 MaxDP=6.47D-05 DE=-1.19D-06 OVMax= 6.80D-05

 Cycle   9  Pass 1  IDiag  1:
 RMSU=  7.63D-07    CP:  9.81D-01  9.05D-01  6.39D-01  7.83D-01  6.41D-01
                    CP:  7.54D-01  7.52D-01  7.14D-01
 E= -766.651847973301     Delta-E=       -0.000000126211 Rises=F Damp=F
 DIIS: error= 3.67D-06 at cycle   9 NSaved=   9.
 NSaved= 9 IEnMin= 9 EnMin= -766.651847973301     IErMin= 9 ErrMin= 3.67D-06
 ErrMax= 3.67D-06  0.00D+00 EMaxC= 1.00D-01 BMatC= 8.16D-09 BMatP= 1.66D-07
 IDIUse=1 WtCom= 1.00D+00 WtEn= 0.00D+00
 Coeff-Com: -0.151D-04-0.130D-04-0.470D-03-0.197D-02-0.175D-02 0.144D-02
 Coeff-Com:  0.441D-01 0.223D+00 0.735D+00
 Coeff:     -0.151D-04-0.130D-04-0.470D-03-0.197D-02-0.175D-02 0.144D-02
 Coeff:      0.441D-01 0.223D+00 0.735D+00
 Gap=     0.246 Goal=   None    Shift=    0.000
 RMSDP=3.28D-07 MaxDP=1.52D-05 DE=-1.26D-07 OVMax= 1.51D-05

 Cycle  10  Pass 1  IDiag  1:
 RMSU=  2.22D-07    CP:  9.81D-01  9.05D-01  6.39D-01  7.83D-01  6.41D-01
                    CP:  7.56D-01  7.65D-01  7.68D-01  8.36D-01
 E= -766.651847978617     Delta-E=       -0.000000005317 Rises=F Damp=F
 DIIS: error= 1.53D-06 at cycle  10 NSaved=  10.
 NSaved=10 IEnMin=10 EnMin= -766.651847978617     IErMin=10 ErrMin= 1.53D-06
 ErrMax= 1.53D-06  0.00D+00 EMaxC= 1.00D-01 BMatC= 1.73D-09 BMatP= 8.16D-09
 IDIUse=1 WtCom= 1.00D+00 WtEn= 0.00D+00
 Coeff-Com:  0.232D-05 0.186D-04-0.358D-03-0.155D-02-0.242D-02-0.597D-02
 Coeff-Com:  0.689D-02 0.879D-01 0.418D+00 0.498D+00
 Coeff:      0.232D-05 0.186D-04-0.358D-03-0.155D-02-0.242D-02-0.597D-02
 Coeff:      0.689D-02 0.879D-01 0.418D+00 0.498D+00
 Gap=     0.246 Goal=   None    Shift=    0.000
 RMSDP=1.12D-07 MaxDP=5.48D-06 DE=-5.32D-09 OVMax= 5.98D-06

 Cycle  11  Pass 1  IDiag  1:
 RMSU=  6.37D-08    CP:  9.81D-01  9.05D-01  6.39D-01  7.83D-01  6.41D-01
                    CP:  7.56D-01  7.67D-01  7.75D-01  8.71D-01  6.29D-01
 E= -766.651847979953     Delta-E=       -0.000000001336 Rises=F Damp=F
 DIIS: error= 2.11D-07 at cycle  11 NSaved=  11.
 NSaved=11 IEnMin=11 EnMin= -766.651847979953     IErMin=11 ErrMin= 2.11D-07
 ErrMax= 2.11D-07  0.00D+00 EMaxC= 1.00D-01 BMatC= 3.85D-11 BMatP= 1.73D-09
 IDIUse=1 WtCom= 1.00D+00 WtEn= 0.00D+00
 Coeff-Com:  0.182D-05 0.692D-05-0.100D-03-0.435D-03-0.750D-03-0.225D-02
 Coeff-Com: -0.140D-03 0.182D-01 0.103D+00 0.177D+00 0.705D+00
 Coeff:      0.182D-05 0.692D-05-0.100D-03-0.435D-03-0.750D-03-0.225D-02
 Coeff:     -0.140D-03 0.182D-01 0.103D+00 0.177D+00 0.705D+00
 Gap=     0.246 Goal=   None    Shift=    0.000
 RMSDP=2.81D-08 MaxDP=1.42D-06 DE=-1.34D-09 OVMax= 1.60D-06

 Cycle  12  Pass 1  IDiag  1:
 RMSU=  2.52D-08    CP:  9.81D-01  9.05D-01  6.39D-01  7.83D-01  6.41D-01
                    CP:  7.56D-01  7.67D-01  7.77D-01  8.79D-01  6.56D-01
                    CP:  9.33D-01
 E= -766.651847979969     Delta-E=       -0.000000000016 Rises=F Damp=F
 DIIS: error= 1.19D-07 at cycle  12 NSaved=  12.
 NSaved=12 IEnMin=12 EnMin= -766.651847979969     IErMin=12 ErrMin= 1.19D-07
 ErrMax= 1.19D-07  0.00D+00 EMaxC= 1.00D-01 BMatC= 1.22D-11 BMatP= 3.85D-11
 IDIUse=1 WtCom= 1.00D+00 WtEn= 0.00D+00
 Coeff-Com:  0.644D-06 0.458D-06 0.194D-05 0.868D-05-0.299D-04-0.311D-03
 Coeff-Com: -0.123D-02-0.434D-02-0.127D-01 0.138D-01 0.390D+00 0.615D+00
 Coeff:      0.644D-06 0.458D-06 0.194D-05 0.868D-05-0.299D-04-0.311D-03
 Coeff:     -0.123D-02-0.434D-02-0.127D-01 0.138D-01 0.390D+00 0.615D+00
 Gap=     0.246 Goal=   None    Shift=    0.000
 RMSDP=1.28D-08 MaxDP=6.43D-07 DE=-1.57D-11 OVMax= 9.76D-07

 Cycle  13  Pass 1  IDiag  1:
 RMSU=  5.92D-09    CP:  9.81D-01  9.05D-01  6.39D-01  7.83D-01  6.41D-01
                    CP:  7.56D-01  7.67D-01  7.77D-01  8.82D-01  6.75D-01
                    CP:  1.03D+00  7.21D-01
 E= -766.651847979983     Delta-E=       -0.000000000014 Rises=F Damp=F
 DIIS: error= 1.80D-08 at cycle  13 NSaved=  13.
 NSaved=13 IEnMin=13 EnMin= -766.651847979983     IErMin=13 ErrMin= 1.80D-08
 ErrMax= 1.80D-08  0.00D+00 EMaxC= 1.00D-01 BMatC= 2.47D-13 BMatP= 1.22D-11
 IDIUse=1 WtCom= 1.00D+00 WtEn= 0.00D+00
 Coeff-Com:  0.124D-06-0.421D-06 0.690D-05 0.290D-04 0.365D-04 0.562D-04
 Coeff-Com: -0.338D-03-0.241D-02-0.103D-01-0.730D-02 0.724D-01 0.179D+00
 Coeff-Com:  0.769D+00
 Coeff:      0.124D-06-0.421D-06 0.690D-05 0.290D-04 0.365D-04 0.562D-04
 Coeff:     -0.338D-03-0.241D-02-0.103D-01-0.730D-02 0.724D-01 0.179D+00
 Coeff:      0.769D+00
 Gap=     0.246 Goal=   None    Shift=    0.000
 RMSDP=2.54D-09 MaxDP=1.12D-07 DE=-1.43D-11 OVMax= 2.57D-07

 Error on total polarization charges =  0.05012
 SCF Done:  E(RPBE1PBE) =  -766.651847980     A.U. after   13 cycles
            NFock= 13  Conv=0.25D-08     -V/T= 2.0095
 KE= 7.594327774573D+02 PE=-4.061713895521D+03 EE= 1.399743427053D+03
 SMD-CDS (non-electrostatic) energy       (kcal/mol) =       8.94
 (included in total energy above)
 Leave Link  502 at Fri Mar 12 22:58:29 2021, MaxMem=  2684354560 cpu:            1047.7 elap:             105.2
 (Enter /opt/g16avx/l601.exe)
 Copying SCF densities to generalized density rwf, IOpCl= 0 IROHF=0.

 **********************************************************************

            Population analysis using the SCF density.

 **********************************************************************

 Orbital symmetries:
       Occupied  (A) (A) (A) (A) (A) (A) (A) (A) (A) (A) (A) (A)
                 (A) (A) (A) (A) (A) (A) (A) (A) (A) (A) (A) (A)
                 (A) (A) (A) (A) (A) (A) (A) (A) (A) (A) (A) (A)
                 (A) (A) (A) (A) (A) (A) (A) (A) (A) (A) (A) (A)
                 (A) (A) (A) (A) (A) (A) (A) (A) (A) (A) (A)
       Virtual   (A) (A) (A) (A) (A) (A) (A) (A) (A) (A) (A) (A)
                 (A) (A) (A) (A) (A) (A) (A) (A) (A) (A) (A) (A)
                 (A) (A) (A) (A) (A) (A) (A) (A) (A) (A) (A) (A)
                 (A) (A) (A) (A) (A) (A) (A) (A) (A) (A) (A) (A)
                 (A) (A) (A) (A) (A) (A) (A) (A) (A) (A) (A) (A)
                 (A) (A) (A) (A) (A) (A) (A) (A) (A) (A) (A) (A)
                 (A) (A) (A) (A) (A) (A) (A) (A) (A) (A) (A) (A)
                 (A) (A) (A) (A) (A) (A) (A) (A) (A) (A) (A) (A)
                 (A) (A) (A) (A) (A) (A) (A) (A) (A) (A) (A) (A)
                 (A) (A) (A) (A) (A) (A) (A) (A) (A) (A) (A) (A)
                 (A) (A) (A) (A) (A) (A) (A) (A) (A) (A) (A) (A)
                 (A) (A) (A) (A) (A) (A) (A) (A) (A) (A) (A) (A)
                 (A) (A) (A) (A) (A) (A) (A) (A) (A) (A) (A) (A)
                 (A) (A) (A) (A) (A) (A) (A) (A) (A) (A) (A) (A)
                 (A) (A) (A) (A) (A) (A) (A) (A) (A) (A) (A) (A)
                 (A) (A) (A) (A) (A) (A) (A) (A) (A) (A) (A) (A)
                 (A) (A) (A) (A) (A) (A) (A) (A) (A) (A) (A) (A)
                 (A) (A) (A) (A) (A) (A) (A) (A) (A) (A) (A) (A)
                 (A) (A) (A) (A) (A) (A) (A) (A) (A) (A) (A) (A)
                 (A) (A) (A) (A) (A) (A) (A) (A) (A) (A) (A) (A)
                 (A)
 The electronic state is 1-A.
 Alpha  occ. eigenvalues --  -19.28644 -19.27215 -19.26939 -19.24452 -19.21951
 Alpha  occ. eigenvalues --  -10.45090 -10.42973 -10.30981 -10.30713 -10.22277
 Alpha  occ. eigenvalues --  -10.22241 -10.22174 -10.22154 -10.22087 -10.22000
 Alpha  occ. eigenvalues --   -1.19863  -1.14654  -1.08047  -1.06863  -1.05551
 Alpha  occ. eigenvalues --   -0.84254  -0.83258  -0.72800  -0.70707  -0.70615
 Alpha  occ. eigenvalues --   -0.70555  -0.70443  -0.65541  -0.62325  -0.54741
 Alpha  occ. eigenvalues --   -0.53886  -0.53394  -0.52217  -0.50890  -0.50121
 Alpha  occ. eigenvalues --   -0.48404  -0.47106  -0.46439  -0.45860  -0.43608
 Alpha  occ. eigenvalues --   -0.43224  -0.42244  -0.40759  -0.40413  -0.39884
 Alpha  occ. eigenvalues --   -0.39179  -0.38040  -0.37669  -0.37524  -0.37398
 Alpha  occ. eigenvalues --   -0.37017  -0.36878  -0.36506  -0.35554  -0.35282
 Alpha  occ. eigenvalues --   -0.32835  -0.32740  -0.31943  -0.30939
 Alpha virt. eigenvalues --   -0.06335   0.01642   0.06820   0.08142   0.09561
 Alpha virt. eigenvalues --    0.10474   0.11687   0.12589   0.13367   0.13932
 Alpha virt. eigenvalues --    0.14184   0.14479   0.15426   0.16116   0.16957
 Alpha virt. eigenvalues --    0.18369   0.18417   0.18597   0.18897   0.19645
 Alpha virt. eigenvalues --    0.20060   0.20533   0.20878   0.21472   0.22083
 Alpha virt. eigenvalues --    0.23064   0.23857   0.25138   0.25937   0.26203
 Alpha virt. eigenvalues --    0.27087   0.31340   0.35835   0.36697   0.39610
 Alpha virt. eigenvalues --    0.40306   0.40809   0.41267   0.42715   0.43454
 Alpha virt. eigenvalues --    0.44670   0.46072   0.47560   0.48891   0.50390
 Alpha virt. eigenvalues --    0.50729   0.53614   0.54458   0.55920   0.56543
 Alpha virt. eigenvalues --    0.57437   0.59346   0.60307   0.60781   0.61886
 Alpha virt. eigenvalues --    0.63205   0.64565   0.64856   0.65488   0.66074
 Alpha virt. eigenvalues --    0.66416   0.66895   0.67704   0.67956   0.68331
 Alpha virt. eigenvalues --    0.68622   0.69025   0.70233   0.71150   0.71329
 Alpha virt. eigenvalues --    0.71804   0.72204   0.72367   0.73077   0.73479
 Alpha virt. eigenvalues --    0.73815   0.74607   0.74779   0.75416   0.75943
 Alpha virt. eigenvalues --    0.76982   0.77724   0.78779   0.83131   0.85331
 Alpha virt. eigenvalues --    0.87300   0.89941   0.91937   0.94609   0.95876
 Alpha virt. eigenvalues --    0.98491   1.01898   1.02703   1.04188   1.04880
 Alpha virt. eigenvalues --    1.09815   1.10783   1.12925   1.14076   1.14170
 Alpha virt. eigenvalues --    1.14913   1.15342   1.18065   1.19973   1.23233
 Alpha virt. eigenvalues --    1.25531   1.28412   1.29751   1.30581   1.32195
 Alpha virt. eigenvalues --    1.33841   1.36377   1.38491   1.39658   1.44350
 Alpha virt. eigenvalues --    1.48025   1.49069   1.51067   1.52726   1.54393
 Alpha virt. eigenvalues --    1.54728   1.55184   1.55293   1.55813   1.56196
 Alpha virt. eigenvalues --    1.57167   1.58416   1.58975   1.59463   1.63649
 Alpha virt. eigenvalues --    1.65696   1.67651   1.68642   1.71004   1.72562
 Alpha virt. eigenvalues --    1.74447   1.75161   1.75541   1.76729   1.77526
 Alpha virt. eigenvalues --    1.77695   1.79530   1.81677   1.83011   1.83788
 Alpha virt. eigenvalues --    1.84408   1.85017   1.85069   1.85320   1.85446
 Alpha virt. eigenvalues --    1.86161   1.86548   1.86930   1.88036   1.88528
 Alpha virt. eigenvalues --    1.89701   1.91652   1.92623   1.93021   1.94035
 Alpha virt. eigenvalues --    1.95865   1.96747   1.97009   1.98070   1.99692
 Alpha virt. eigenvalues --    2.02514   2.03122   2.04677   2.07452   2.09158
 Alpha virt. eigenvalues --    2.12886   2.13400   2.16010   2.16711   2.21149
 Alpha virt. eigenvalues --    2.21867   2.22330   2.22734   2.29855   2.32606
 Alpha virt. eigenvalues --    2.36728   2.37506   2.40205   2.40657   2.41665
 Alpha virt. eigenvalues --    2.41760   2.46082   2.46445   2.48353   2.49230
 Alpha virt. eigenvalues --    2.51531   2.52399   2.57042   2.58356   2.60700
 Alpha virt. eigenvalues --    2.62069   2.64458   2.64953   2.65486   2.65904
 Alpha virt. eigenvalues --    2.66319   2.67193   2.68137   2.70764   2.72966
 Alpha virt. eigenvalues --    2.73144   2.78162   2.81059   2.82525   2.84309
 Alpha virt. eigenvalues --    2.86687   2.89100   2.89824   2.91833   2.91920
 Alpha virt. eigenvalues --    2.92836   2.93631   2.95275   2.95706   2.96951
 Alpha virt. eigenvalues --    2.97884   2.98222   2.98420   2.98855   3.04772
 Alpha virt. eigenvalues --    3.05585   3.07266   3.10552   3.11185   3.12518
 Alpha virt. eigenvalues --    3.16733   3.23854   3.26596   3.30681   3.39819
 Alpha virt. eigenvalues --    3.45785   3.47946   3.60606   3.65780   3.72995
 Alpha virt. eigenvalues --    3.75275
          Condensed to atoms (all electrons):
               1          2          3          4          5          6
     1  C    4.258344   0.603585   0.296204  -0.014954  -0.002542   0.385999
     2  O    0.603585   7.780898  -0.070709   0.016257  -0.000384  -0.062051
     3  O    0.296204  -0.070709   8.013120   0.322571  -0.071068  -0.074812
     4  C   -0.014954   0.016257   0.322571   4.257998   0.665525  -0.000491
     5  O   -0.002542  -0.000384  -0.071068   0.665525   7.764595  -0.000035
     6  O    0.385999  -0.062051  -0.074812  -0.000491  -0.000035   8.060197
     7  O    0.000095  -0.002378  -0.085057   0.382329  -0.073404  -0.000105
     8  C   -0.000264  -0.000105   0.002282  -0.033999   0.004703  -0.000015
     9  C   -0.000185  -0.000203  -0.000014   0.005943   0.000329   0.000001
    10  H    0.000064  -0.000100  -0.000002  -0.000232  -0.000009   0.000001
    11  H   -0.000006   0.000009  -0.000028  -0.000009   0.000003   0.000000
    12  H    0.000005  -0.000002   0.000003  -0.000057   0.000019   0.000000
    13  C   -0.000072  -0.000942  -0.000501  -0.005068  -0.011242  -0.000000
    14  H   -0.000061   0.000043   0.000170   0.003182   0.013741   0.000000
    15  H    0.000039   0.004250  -0.000135   0.001297  -0.000325   0.000008
    16  H    0.000000   0.000011   0.000003   0.000360   0.000132   0.000000
    17  C    0.000064   0.000011  -0.000361  -0.006886  -0.011602   0.000000
    18  H   -0.000000   0.000000  -0.000026   0.000457  -0.000134   0.000000
    19  H    0.000005  -0.000002   0.000221   0.001741   0.016253   0.000000
    20  H    0.000000   0.000000   0.000007   0.000440   0.000215   0.000000
    21  C   -0.035730   0.003892  -0.002227  -0.000503  -0.000006   0.183125
    22  C    0.002004  -0.010885   0.002834   0.000437   0.000007  -0.047854
    23  H    0.000547  -0.000133   0.000369   0.000400   0.000003   0.000084
    24  H    0.005418   0.010221  -0.001764  -0.000548   0.000004  -0.005888
    25  H    0.000132  -0.000126   0.000004  -0.000023   0.000000   0.003975
    26  C   -0.008737  -0.009513  -0.000162   0.000049  -0.000000  -0.043119
    27  H   -0.000451   0.016180   0.000216  -0.000016  -0.000000  -0.003605
    28  H    0.000783  -0.000037   0.000013   0.000002   0.000000  -0.000015
    29  H    0.000530   0.000299   0.000010  -0.000001   0.000000   0.003902
    30  C    0.004924   0.000276  -0.000362  -0.000033  -0.000000  -0.053816
    31  H    0.000196   0.000012   0.000015   0.000003   0.000000   0.001319
    32  H   -0.000159   0.000014  -0.000012  -0.000004  -0.000000   0.001871
    33  H   -0.000073   0.000013   0.000005  -0.000000   0.000000   0.004019
               7          8          9         10         11         12
     1  C    0.000095  -0.000264  -0.000185   0.000064  -0.000006   0.000005
     2  O   -0.002378  -0.000105  -0.000203  -0.000100   0.000009  -0.000002
     3  O   -0.085057   0.002282  -0.000014  -0.000002  -0.000028   0.000003
     4  C    0.382329  -0.033999   0.005943  -0.000232  -0.000009  -0.000057
     5  O   -0.073404   0.004703   0.000329  -0.000009   0.000003   0.000019
     6  O   -0.000105  -0.000015   0.000001   0.000001   0.000000   0.000000
     7  O    8.058883   0.167665  -0.046875  -0.001862   0.000166   0.003913
     8  C    0.167665   4.923443   0.407169  -0.014006  -0.015469  -0.016258
     9  C   -0.046875   0.407169   4.648488   0.388259   0.384701   0.388395
    10  H   -0.001862  -0.014006   0.388259   0.595380  -0.023271  -0.016641
    11  H    0.000166  -0.015469   0.384701  -0.023271   0.606965  -0.016336
    12  H    0.003913  -0.016258   0.388395  -0.016641  -0.016336   0.596741
    13  C   -0.039334   0.415458  -0.069132  -0.008649   0.008804  -0.004325
    14  H   -0.004972  -0.014163   0.007816   0.000019  -0.000446   0.000038
    15  H   -0.001680  -0.013347  -0.009932   0.005125  -0.000047  -0.000250
    16  H    0.003858  -0.017809  -0.003834  -0.000469   0.000030   0.002136
    17  C   -0.039976   0.410795  -0.070979   0.008334  -0.009206  -0.003808
    18  H   -0.000427  -0.013160  -0.009457  -0.000071   0.005534  -0.000313
    19  H   -0.004584  -0.013192   0.007671  -0.000441  -0.000022   0.000100
    20  H    0.003838  -0.018540  -0.004074   0.000055  -0.000410   0.002240
    21  C   -0.000666   0.000007   0.000062  -0.000001   0.000007  -0.000002
    22  C   -0.000778  -0.000134  -0.000539  -0.000317   0.000069   0.000024
    23  H    0.001410  -0.000070   0.000088  -0.000138   0.000545   0.000001
    24  H    0.005190  -0.000504   0.000532   0.003751   0.000117   0.000010
    25  H    0.000119  -0.000003   0.000019   0.000025   0.000019  -0.000000
    26  C    0.000008  -0.000002   0.000001  -0.000001  -0.000000   0.000000
    27  H   -0.000032   0.000005  -0.000003  -0.000009  -0.000000  -0.000000
    28  H   -0.000000   0.000000  -0.000000   0.000000  -0.000000  -0.000000
    29  H    0.000000   0.000000  -0.000000   0.000000   0.000000  -0.000000
    30  C   -0.000002  -0.000000  -0.000001  -0.000000   0.000000   0.000000
    31  H    0.000000   0.000000   0.000000  -0.000000  -0.000000  -0.000000
    32  H   -0.000004  -0.000000   0.000000  -0.000000  -0.000001  -0.000000
    33  H    0.000000  -0.000000   0.000000  -0.000000  -0.000000  -0.000000
              13         14         15         16         17         18
     1  C   -0.000072  -0.000061   0.000039   0.000000   0.000064  -0.000000
     2  O   -0.000942   0.000043   0.004250   0.000011   0.000011   0.000000
     3  O   -0.000501   0.000170  -0.000135   0.000003  -0.000361  -0.000026
     4  C   -0.005068   0.003182   0.001297   0.000360  -0.006886   0.000457
     5  O   -0.011242   0.013741  -0.000325   0.000132  -0.011602  -0.000134
     6  O   -0.000000   0.000000   0.000008   0.000000   0.000000   0.000000
     7  O   -0.039334  -0.004972  -0.001680   0.003858  -0.039976  -0.000427
     8  C    0.415458  -0.014163  -0.013347  -0.017809   0.410795  -0.013160
     9  C   -0.069132   0.007816  -0.009932  -0.003834  -0.070979  -0.009457
    10  H   -0.008649   0.000019   0.005125  -0.000469   0.008334  -0.000071
    11  H    0.008804  -0.000446  -0.000047   0.000030  -0.009206   0.005534
    12  H   -0.004325   0.000038  -0.000250   0.002136  -0.003808  -0.000313
    13  C    4.654827   0.385842   0.377827   0.391231  -0.074800   0.008813
    14  H    0.385842   0.596949  -0.022364  -0.017807  -0.009821   0.000107
    15  H    0.377827  -0.022364   0.611157  -0.015906   0.008905  -0.000473
    16  H    0.391231  -0.017807  -0.015906   0.591953  -0.003454  -0.000109
    17  C   -0.074800  -0.009821   0.008905  -0.003454   4.655703   0.380128
    18  H    0.008813   0.000107  -0.000473  -0.000109   0.380128   0.611064
    19  H   -0.009415   0.004580   0.000071  -0.000298   0.384059  -0.021754
    20  H   -0.003724  -0.000201  -0.000051   0.002193   0.391223  -0.016940
    21  C   -0.000002   0.000000  -0.000001  -0.000000  -0.000001  -0.000000
    22  C    0.000010   0.000002  -0.000047   0.000000  -0.000021  -0.000004
    23  H    0.000018   0.000000  -0.000004  -0.000000  -0.000015   0.000019
    24  H   -0.000130  -0.000011   0.000233   0.000001   0.000088   0.000001
    25  H    0.000002  -0.000000  -0.000000  -0.000000   0.000001   0.000000
    26  C    0.000000   0.000000  -0.000003   0.000000   0.000000  -0.000000
    27  H   -0.000003  -0.000000   0.000014  -0.000000  -0.000000  -0.000000
    28  H   -0.000000  -0.000000   0.000000  -0.000000   0.000000  -0.000000
    29  H   -0.000000  -0.000000   0.000000  -0.000000  -0.000000   0.000000
    30  C   -0.000000   0.000000   0.000000  -0.000000  -0.000000   0.000000
    31  H    0.000000  -0.000000   0.000000  -0.000000   0.000000   0.000000
    32  H   -0.000000   0.000000  -0.000000   0.000000   0.000000  -0.000000
    33  H    0.000000  -0.000000  -0.000000  -0.000000   0.000000   0.000000
              19         20         21         22         23         24
     1  C    0.000005   0.000000  -0.035730   0.002004   0.000547   0.005418
     2  O   -0.000002   0.000000   0.003892  -0.010885  -0.000133   0.010221
     3  O    0.000221   0.000007  -0.002227   0.002834   0.000369  -0.001764
     4  C    0.001741   0.000440  -0.000503   0.000437   0.000400  -0.000548
     5  O    0.016253   0.000215  -0.000006   0.000007   0.000003   0.000004
     6  O    0.000000   0.000000   0.183125  -0.047854   0.000084  -0.005888
     7  O   -0.004584   0.003838  -0.000666  -0.000778   0.001410   0.005190
     8  C   -0.013192  -0.018540   0.000007  -0.000134  -0.000070  -0.000504
     9  C    0.007671  -0.004074   0.000062  -0.000539   0.000088   0.000532
    10  H   -0.000441   0.000055  -0.000001  -0.000317  -0.000138   0.003751
    11  H   -0.000022  -0.000410   0.000007   0.000069   0.000545   0.000117
    12  H    0.000100   0.002240  -0.000002   0.000024   0.000001   0.000010
    13  C   -0.009415  -0.003724  -0.000002   0.000010   0.000018  -0.000130
    14  H    0.004580  -0.000201   0.000000   0.000002   0.000000  -0.000011
    15  H    0.000071  -0.000051  -0.000001  -0.000047  -0.000004   0.000233
    16  H   -0.000298   0.002193  -0.000000   0.000000  -0.000000   0.000001
    17  C    0.384059   0.391223  -0.000001  -0.000021  -0.000015   0.000088
    18  H   -0.021754  -0.016940  -0.000000  -0.000004   0.000019   0.000001
    19  H    0.596464  -0.016980   0.000000   0.000001  -0.000001  -0.000003
    20  H   -0.016980   0.595541   0.000000   0.000000  -0.000000  -0.000002
    21  C    0.000000   0.000000   4.926552   0.408027  -0.012632  -0.013087
    22  C    0.000001   0.000000   0.408027   4.675790   0.378938   0.384154
    23  H   -0.000001  -0.000000  -0.012632   0.378938   0.608911  -0.022902
    24  H   -0.000003  -0.000002  -0.013087   0.384154  -0.022902   0.587380
    25  H   -0.000000  -0.000000  -0.014471   0.388096  -0.016146  -0.017282
    26  C    0.000000  -0.000000   0.413406  -0.083061   0.009137  -0.008356
    27  H    0.000000   0.000000  -0.013009  -0.007169  -0.000060   0.004431
    28  H   -0.000000   0.000000  -0.013164   0.009050  -0.000479   0.000062
    29  H   -0.000000  -0.000000  -0.018560  -0.002479  -0.000030  -0.000496
    30  C    0.000000   0.000000   0.401724  -0.071391  -0.010487   0.008143
    31  H   -0.000000  -0.000000  -0.016109   0.009081  -0.000019  -0.000437
    32  H    0.000000  -0.000000  -0.015809  -0.009717   0.005778  -0.000044
    33  H   -0.000000  -0.000000  -0.015043  -0.003953  -0.000204   0.000006
              25         26         27         28         29         30
     1  C    0.000132  -0.008737  -0.000451   0.000783   0.000530   0.004924
     2  O   -0.000126  -0.009513   0.016180  -0.000037   0.000299   0.000276
     3  O    0.000004  -0.000162   0.000216   0.000013   0.000010  -0.000362
     4  C   -0.000023   0.000049  -0.000016   0.000002  -0.000001  -0.000033
     5  O    0.000000  -0.000000  -0.000000   0.000000   0.000000  -0.000000
     6  O    0.003975  -0.043119  -0.003605  -0.000015   0.003902  -0.053816
     7  O    0.000119   0.000008  -0.000032  -0.000000   0.000000  -0.000002
     8  C   -0.000003  -0.000002   0.000005   0.000000   0.000000  -0.000000
     9  C    0.000019   0.000001  -0.000003  -0.000000  -0.000000  -0.000001
    10  H    0.000025  -0.000001  -0.000009   0.000000   0.000000  -0.000000
    11  H    0.000019  -0.000000  -0.000000  -0.000000   0.000000   0.000000
    12  H   -0.000000   0.000000  -0.000000  -0.000000  -0.000000   0.000000
    13  C    0.000002   0.000000  -0.000003  -0.000000  -0.000000  -0.000000
    14  H   -0.000000   0.000000  -0.000000  -0.000000  -0.000000   0.000000
    15  H   -0.000000  -0.000003   0.000014   0.000000   0.000000   0.000000
    16  H   -0.000000   0.000000  -0.000000  -0.000000  -0.000000  -0.000000
    17  C    0.000001   0.000000  -0.000000   0.000000  -0.000000  -0.000000
    18  H    0.000000  -0.000000  -0.000000  -0.000000   0.000000   0.000000
    19  H   -0.000000   0.000000   0.000000  -0.000000  -0.000000   0.000000
    20  H   -0.000000  -0.000000   0.000000   0.000000  -0.000000   0.000000
    21  C   -0.014471   0.413406  -0.013009  -0.013164  -0.018560   0.401724
    22  C    0.388096  -0.083061  -0.007169   0.009050  -0.002479  -0.071391
    23  H   -0.016146   0.009137  -0.000060  -0.000479  -0.000030  -0.010487
    24  H   -0.017282  -0.008356   0.004431   0.000062  -0.000496   0.008143
    25  H    0.587687  -0.003447  -0.000493  -0.000062   0.002031  -0.003850
    26  C   -0.003447   4.660921   0.383358   0.378737   0.387690  -0.071114
    27  H   -0.000493   0.383358   0.596330  -0.021113  -0.016367   0.007803
    28  H   -0.000062   0.378737  -0.021113   0.613943  -0.017157  -0.010071
    29  H    0.002031   0.387690  -0.016367  -0.017157   0.600478  -0.004625
    30  C   -0.003850  -0.071114   0.007803  -0.010071  -0.004625   4.671064
    31  H   -0.000033  -0.009543  -0.000011   0.005770  -0.000345   0.382282
    32  H   -0.000474   0.009254  -0.000482  -0.000037  -0.000079   0.382342
    33  H    0.001723  -0.003397   0.000095  -0.000345   0.002221   0.386433
              31         32         33
     1  C    0.000196  -0.000159  -0.000073
     2  O    0.000012   0.000014   0.000013
     3  O    0.000015  -0.000012   0.000005
     4  C    0.000003  -0.000004  -0.000000
     5  O    0.000000  -0.000000   0.000000
     6  O    0.001319   0.001871   0.004019
     7  O    0.000000  -0.000004   0.000000
     8  C    0.000000  -0.000000  -0.000000
     9  C    0.000000   0.000000   0.000000
    10  H   -0.000000  -0.000000  -0.000000
    11  H   -0.000000  -0.000001  -0.000000
    12  H   -0.000000  -0.000000  -0.000000
    13  C    0.000000  -0.000000   0.000000
    14  H   -0.000000   0.000000  -0.000000
    15  H    0.000000  -0.000000  -0.000000
    16  H   -0.000000   0.000000  -0.000000
    17  C    0.000000   0.000000   0.000000
    18  H    0.000000  -0.000000   0.000000
    19  H   -0.000000   0.000000  -0.000000
    20  H   -0.000000  -0.000000  -0.000000
    21  C   -0.016109  -0.015809  -0.015043
    22  C    0.009081  -0.009717  -0.003953
    23  H   -0.000019   0.005778  -0.000204
    24  H   -0.000437  -0.000044   0.000006
    25  H   -0.000033  -0.000474   0.001723
    26  C   -0.009543   0.009254  -0.003397
    27  H   -0.000011  -0.000482   0.000095
    28  H    0.005770  -0.000037  -0.000345
    29  H   -0.000345  -0.000079   0.002221
    30  C    0.382282   0.382342   0.386433
    31  H    0.608073  -0.022283  -0.016046
    32  H   -0.022283   0.609669  -0.016509
    33  H   -0.016046  -0.016509   0.594937
 Mulliken charges:
               1
     1  C    0.504297
     2  O   -0.278403
     3  O   -0.330809
     4  C    0.403834
     5  O   -0.294778
     6  O   -0.352696
     7  O   -0.325337
     8  C   -0.160487
     9  C   -0.024247
    10  H    0.065206
    11  H    0.058280
    12  H    0.064365
    13  C   -0.015494
    14  H    0.057357
    15  H    0.055643
    16  H    0.067778
    17  C   -0.008382
    18  H    0.056743
    19  H    0.055525
    20  H    0.065168
    21  C   -0.165782
    22  C   -0.020174
    23  H    0.057073
    24  H    0.061712
    25  H    0.072579
    26  C   -0.002104
    27  H    0.054393
    28  H    0.054121
    29  H    0.062975
    30  C   -0.019240
    31  H    0.058076
    32  H    0.056686
    33  H    0.066120
 Sum of Mulliken charges =  -0.00000
 Mulliken charges with hydrogens summed into heavy atoms:
               1
     1  C    0.504297
     2  O   -0.278403
     3  O   -0.330809
     4  C    0.403834
     5  O   -0.294778
     6  O   -0.352696
     7  O   -0.325337
     8  C   -0.160487
     9  C    0.163604
    13  C    0.165284
    17  C    0.169054
    21  C   -0.165782
    22  C    0.171191
    26  C    0.169385
    30  C    0.161641
 Electronic spatial extent (au):  <R**2>=           3790.7339
 Charge=             -0.0000 electrons
 Dipole moment (field-independent basis, Debye):
    X=              1.4982    Y=              5.4110    Z=             -0.3935  Tot=              5.6284
 Quadrupole moment (field-independent basis, Debye-Ang):
   XX=            -75.0424   YY=            -93.5014   ZZ=            -92.1041
   XY=             -5.7147   XZ=             -1.1807   YZ=             -1.9493
 Traceless Quadrupole moment (field-independent basis, Debye-Ang):
   XX=             11.8402   YY=             -6.6188   ZZ=             -5.2215
   XY=             -5.7147   XZ=             -1.1807   YZ=             -1.9493
 Octapole moment (field-independent basis, Debye-Ang**2):
  XXX=             11.8666  YYY=              9.2380  ZZZ=             -8.8784  XYY=             16.1143
  XXY=             37.1337  XXZ=              3.5383  XZZ=             -4.4520  YZZ=             -0.8526
  YYZ=              5.9800  XYZ=             -2.6497
 Hexadecapole moment (field-independent basis, Debye-Ang**3):
 XXXX=          -3334.6238 YYYY=           -882.9034 ZZZZ=           -530.6844 XXXY=            -37.4312
 XXXZ=            -11.0165 YYYX=            -32.9026 YYYZ=            -10.7156 ZZZX=             -1.0672
 ZZZY=              5.2247 XXYY=           -729.2519 XXZZ=           -680.7659 YYZZ=           -230.5542
 XXYZ=             -6.9976 YYXZ=             -0.3899 ZZXY=              1.8290
 N-N= 1.135885843030D+03 E-N=-4.061713892038D+03  KE= 7.594327774573D+02
 No NMR shielding tensors so no spin-rotation constants.
 Leave Link  601 at Fri Mar 12 22:58:30 2021, MaxMem=  2684354560 cpu:               1.8 elap:               0.2
[...]
 -0.00001756,-0.00000734,0.00000425,0.00000248,0.00000207,-0.00000083,-
 0.00000093,-0.00000024,0.00000059,-0.00000034,-0.00000031,-0.00000014,
 0.00000112,-0.00000063,-0.00000019,0.00000383,0.00000105,-0.00000040,-
 0.00000052,-0.00000057,0.00000010,-0.00000128,-0.00000028,0.00000077,0
 .00000056,0.00000060,-0.00000124,0.00000310,0.00000112,-0.00000157,-0.
 00000016,-0.00000016,0.00000023,-0.00000048,-0.00000052,-0.00000009,0.
 00000102,0.00000074,0.00000097,0.00352971,-0.00696693,-0.00416152,0.00
 046487,0.00062444,0.00208683,0.00062063,-0.00004968,-0.00014674,0.0000
 7855,-0.00001498,-0.00014387,-0.00016996,0.00024696,0.00005570,0.13223
 067,-0.16192923,-0.03996836,-0.01037711,0.00983004,0.00274912,-0.14386
 447,0.16938984,0.00000736,-0.00032409,0.00018719,0.00009473,0.00016668
 ,0.00004911,-0.00003609,0.00005531,0.00001981,-0.00002946,-0.00003106,
 -0.00001241,0.00000392,0.00000982,0.00000347,0.00149024,0.00093900,0.0
 0208358,0.00000964,0.00000355,0.00000200,-0.00000440,-0.00000127,0.000
 00107,0.00000055,0.00000042,-0.00000052,-0.00000064,0.00000012,-0.0000
 0008,0.00000016,0.00000007,0.00000036,0.00000018,-0.00000032,-0.000000
 02,0.00000066,-0.00000017,-0.00000046,0.00000003,0.00000011,0.00000025
 ,-0.00000047,-0.00000038,0.00000049,0.,0.00000018,-0.00000028,0.000000
 83,0.00000021,-0.00000054,-0.00000004,0.00000003,0.00000012,-0.0000001
 4,-0.00000013,0.00000004,0.00000022,0.00000020,0.00000027,-0.02022190,
 0.01877550,0.00554751,-0.00235097,0.00070396,-0.00455530,-0.00132148,0
 .00091641,0.00029139,-0.00000888,-0.00008251,0.00000441,0.00020393,-0.
 00001473,0.00001346,0.05034521,-0.04382534,-0.06219074,0.01214075,-0.0
 1438947,-0.00371846,-0.04897520,0.04319348,0.06422665,0.00128119,0.001
 94798,-0.00026011,-0.00091817,-0.00045093,-0.00011698,-0.00031243,-0.0
 0104154,-0.00024686,0.00050873,0.00038062,-0.00002145,-0.00009361,-0.0
 0022910,-0.00000727,-0.00230154,-0.00103672,-0.00309500,-0.00020832,-0
 .00002801,0.00000144,0.00007869,0.00002927,-0.00002100,-0.00000993,-0.
 00000908,0.00000354,0.00000331,0.00000064,-0.00000110,0.00000083,0.000
 00086,-0.00000025,-0.00000438,0.00000350,0.00000069,-0.00001613,-0.000
 00410,0.00000342,0.00000142,0.00000297,-0.00000093,0.00000616,0.000001
 58,-0.00000401,-0.00000161,-0.00000260,0.00000520,-0.00001485,-0.00000
 504,0.00000750,0.00000079,0.00000048,-0.00000070,0.00000196,0.00000312
 ,0.00000067,-0.00000416,-0.00000328,-0.00000460,-0.00654297,-0.0131289
 9,-0.00286267,0.00034813,-0.00003370,0.00045415,0.00019831,0.00000797,
 0.00008210,-0.00002188,-0.00003322,-0.00004873,-0.00029310,0.00031948,
 -0.00017849,-0.09218047,-0.09523968,-0.04717962,-0.00650663,-0.0131238
 3,-0.00897017,0.01101286,0.01829445,0.00914532,0.09547262,-0.00021619,
 -0.00014817,0.00098481,-0.00024450,-0.00017033,-0.00053370,0.00007706,
 0.00009186,-0.00008431,-0.00001933,0.00000932,-0.00000700,0.00000608,0
 .00001503,0.00000842,0.00152081,0.00205314,0.00234569,-0.00000497,-0.0
 0000977,-0.00000789,0.00000378,0.00000028,-0.00000152,-0.00000011,-0.0
 0000027,-0.00000003,0.00000037,0.00000009,-0.00000004,0.00000005,0.000
 00016,-0.00000008,-0.00000027,0.,0.00000006,-0.00000094,0.00000004,0.0
 0000052,0.00000028,0.00000029,0.00000025,0.00000129,0.,-0.00000079,-0.
 00000039,-0.00000016,0.,-0.00000077,-0.00000009,0.00000053,0.00000009,
 0.00000002,-0.00000011,0.00000001,-0.00000001,-0.00000003,-0.00000024,
 -0.00000029,-0.00000021,0.00377972,0.00540908,0.00314569,0.00020843,-0
 .00025191,-0.00012699,-0.00012595,0.00022524,-0.00000785,0.00004827,0.
 00001923,-0.00004888,0.00031836,0.00010229,0.00028928,-0.09727077,-0.2
 3704393,-0.09300436,-0.00241625,-0.00788079,-0.00526070,-0.00925581,-0
 .01273588,-0.00587915,0.10345485,0.24985239,0.00273814,0.00282275,-0.0
 0296691,-0.00003029,0.00012009,0.00171953,-0.00060170,-0.00106027,0.00
 000623,0.00055140,0.00034332,-0.00003648,-0.00010481,-0.00025128,-0.00
 001765,-0.00631009,-0.00260806,-0.00517233,-0.00019370,-0.00000023,0.0
 0002783,0.00006935,0.00002915,-0.00001515,-0.00000979,-0.00000871,0.00
 000350,0.00000276,0.00000053,-0.00000096,0.00000079,0.00000078,-0.0000
 0023,-0.00000417,0.00000334,0.00000065,-0.00001462,-0.00000455,0.00000
 180,0.00000132,0.00000279,-0.00000124,0.00000347,0.00000127,-0.0000019
 7,-0.00000134,-0.00000231,0.00000518,-0.00001200,-0.00000443,0.0000061
 7,0.00000067,0.00000045,-0.00000071,0.00000201,0.00000315,0.00000064,-
 0.00000366,-0.00000257,-0.00000387,-0.00718925,-0.02154644,-0.00752613
 ,0.00057165,-0.00028346,0.00072967,0.00025187,0.00008389,-0.00000220,-
 0.00002437,0.00000910,0.00000673,-0.00016066,0.00027733,0.00012406,-0.
 04652628,-0.08915959,-0.08803777,0.00752867,0.01752494,0.00977488,-0.0
 0311281,-0.00361264,-0.00311662,0.05218414,0.09743724,0.09391995,-0.00
 043176,-0.00085897,-0.00103637,0.00009623,0.00000139,0.00035139,-0.000
 41633,-0.00050264,0.00000331,0.00021814,0.00006803,-0.00006052,-0.0000
 5535,-0.00011347,0.00000678,-0.01452179,-0.01929038,0.00727693,-0.0000
 7339,0.00000022,0.00001013,0.00002681,0.00001110,-0.00000821,-0.000002
 81,-0.00000276,0.00000212,0.00000017,0.00000072,-0.00000083,0.00000069
 ,0.00000044,0.00000021,-0.00000153,0.00000102,0.00000007,-0.00000492,-
 0.00000173,0.00000099,0.00000044,0.00000141,-0.00000064,0.00000044,0.0
 0000042,-0.00000051,-0.00000051,-0.00000066,0.00000205,-0.00000439,-0.
 00000206,0.00000241,0.00000039,0.00000021,-0.00000013,0.00000066,0.000
 00121,0.00000009,-0.00000140,-0.00000096,-0.00000148,-0.12817278,-0.02
 941755,0.05622666,-0.02405792,-0.00701875,0.02261478,0.00095512,-0.001
 17160,0.00060511,-0.00325174,0.00291535,0.00081978,0.00043612,-0.00125
 812,-0.00019765,0.01120777,0.00752786,-0.00843302,-0.00132645,0.001487
 37,-0.00417341,0.00038111,0.00016254,-0.00081831,0.00025755,-0.0000696
 2,0.00033316,0.56586428,0.00075356,-0.00148033,-0.00341850,-0.00099982
 ,-0.00003795,0.00160542,-0.00183446,-0.00242207,-0.00024114,0.00115230
 ,0.00063123,-0.00027573,-0.00024367,-0.00058067,0.00003024,-0.03447950
 ,-0.03709261,0.01677617,-0.00044381,-0.00002511,0.00005504,0.00016156,
 0.00006276,-0.00003967,-0.00002149,-0.00002013,0.00000547,0.00000399,0
 .00000044,-0.00000041,0.00000140,0.00000149,-0.00000068,-0.00000907,0.
 00000803,0.00000170,-0.00003405,-0.00001012,0.00000583,0.00000301,0.00
 000798,-0.00000257,0.00000880,0.00000183,-0.00000476,-0.00000347,-0.00
 000488,0.00001171,-0.00002859,-0.00001018,0.00001369,0.00000176,0.0000
 0080,-0.00000124,0.00000402,0.00000686,0.00000148,-0.00000832,-0.00000
 621,-0.00000876,-0.02340550,-0.08938992,0.03481027,0.01245980,0.010597
 16,-0.01255178,-0.00005200,0.00016188,-0.00026739,0.00444427,-0.002232
 68,-0.00132792,-0.00014279,0.00044961,0.00007637,-0.00380389,-0.004172
 33,0.01203805,0.00071227,0.00035685,0.00079762,-0.00095231,0.00012578,
 0.00000719,-0.00049287,-0.00002810,-0.00053878,-0.02412626,0.58929645,
 0.00113891,0.00011063,-0.00277012,-0.00094755,-0.00040472,0.00167408,-
 0.00157118,-0.00223674,-0.00033322,0.00110079,0.00070058,-0.00022623,-
 0.00021808,-0.00054314,0.00002361,-0.01302119,-0.01371153,0.00975272,-
 0.00043223,-0.00003005,0.00004731,0.00015815,0.00006146,-0.00003758,-0
 .00002097,-0.00002037,0.00000828,0.00000542,0.00000128,-0.00000198,0.0
 0000115,0.00000209,-0.00000137,-0.00000926,0.00000758,0.00000121,-0.00
 003418,-0.00001041,0.00000613,0.00000293,0.00000708,-0.00000272,0.0000
 0966,0.00000248,-0.00000603,-0.00000350,-0.00000495,0.00001132,-0.0000
 2748,-0.00001041,0.00001492,0.00000125,0.00000120,-0.00000224,0.000004
 00,0.00000622,0.00000120,-0.00000827,-0.00000606,-0.00000887,0.0640340
 0,0.04658200,-0.14594246,0.00867618,0.00087054,-0.00721407,-0.00129535
 ,0.00046855,0.00074471,0.00035115,-0.00048316,0.00063966,0.00020082,0.
 00044546,0.00004334,0.01641069,0.01490689,-0.02785702,-0.00266879,0.00
 149731,-0.00385805,0.00107892,-0.00063213,0.00131796,0.00089202,0.0005
 0261,0.00071063,0.04147159,0.03001803,0.56019828,0.00020212,0.00003251
 ,0.00002753,0.00008184,-0.00001297,-0.00019574,-0.00003326,-0.00001421
 ,-0.00002338,-0.00000580,0.00000846,-0.00000225,0.00000367,-0.00000585
 ,-0.00000009,0.00139710,0.00114165,-0.00028210,0.00000374,-0.00000393,
 -0.00000138,-0.00000070,0.00000118,0.00000059,-0.00000004,0.00000015,0
 .00000066,0.00000037,0.00000008,-0.00000078,0.00000028,0.00000017,0.00
 000024,-0.00000011,-0.00000032,-0.00000007,0.00000028,0.00000004,0.000
 00010,0.00000005,-0.00000033,-0.00000005,-0.00000012,0.00000024,-0.000
 00033,-0.00000005,0.00000002,0.,0.00000053,-0.00000009,0.00000008,-0.0
 0000021,0.00000024,-0.00000021,0.00000006,-0.00000040,0.,-0.00000004,0
 .00000002,-0.00000010,-0.01528287,0.01273505,0.00286065,-0.00179460,-0
 .00307961,0.00314706,0.00024919,-0.00012384,-0.00002696,-0.00084064,0.
 00091772,0.00040573,0.00024707,0.00009263,-0.00011773,0.00058030,0.000
 40169,-0.00158239,0.00004419,-0.00025108,-0.00015021,0.00054337,-0.000
 20198,0.00026284,0.00002487,-0.00008703,0.00001546,-0.20265923,0.13155
 358,0.04380797,0.21583528,-0.00009226,0.00009440,0.00023230,0.00005063
 ,0.00000679,-0.00011980,0.00011116,0.00014401,0.00001351,-0.00007135,-
 0.00005019,0.00001569,0.00001399,0.00003736,-0.00000125,0.00038889,0.0
 0181246,0.00014564,0.00003002,0.00000283,-0.00000483,-0.00001111,-0.00
 000486,0.00000265,0.00000156,0.00000164,-0.00000025,-0.00000016,0.,0.0
 0000004,-0.00000017,-0.00000021,0.00000002,0.00000072,-0.00000052,-0.0
 0000017,0.00000243,0.00000073,-0.00000027,-0.00000027,-0.00000042,0.00
 000013,-0.00000050,-0.00000007,0.00000019,0.00000032,0.00000037,-0.000
 00085,0.00000191,0.00000070,-0.00000110,-0.00000012,-0.00000013,0.0000
 0021,-0.00000035,-0.00000032,-0.00000003,0.00000067,0.00000047,0.00000
 061,-0.01229403,0.00688749,0.00346030,-0.00146031,-0.00059246,0.001369
 40,-0.00000693,-0.00011604,0.00002746,-0.00053570,0.00044996,0.0003157
 0,0.00003201,0.00018940,0.00012429,-0.00044015,0.00060239,-0.00030351,
 -0.00009951,0.00005713,-0.00009668,0.00002434,-0.00000140,-0.00010306,
 0.00006843,0.00006162,0.00003573,0.13488549,-0.15751353,-0.03758392,-0
 .14210468,0.16371050,-0.00043149,-0.00031666,0.00004847,0.00005297,0.0
 0010690,-0.00000451,0.00012098,0.00014373,0.00004411,-0.00006871,-0.00
 006421,0.00001023,0.00001063,0.00003907,-0.00000044,-0.00127002,-0.000
 38150,0.00050118,0.00003232,0.00000522,-0.00000260,-0.00001233,-0.0000
 0584,0.00000307,0.00000177,0.00000141,-0.00000136,-0.00000082,-0.00000
 025,0.00000069,-0.00000028,-0.00000017,0.,0.00000083,-0.00000040,-0.00
 000004,0.00000250,0.00000067,-0.00000077,-0.00000022,-0.00000032,0.000
 00027,-0.00000081,-0.00000039,0.00000078,0.00000029,0.00000043,-0.0000
 0090,0.00000209,0.00000089,-0.00000124,-0.00000018,-0.00000008,0.00000
 020,-0.00000034,-0.00000035,0.00000009,0.00000072,0.00000051,0.0000006
 8,0.01515364,-0.01576807,-0.00543942,0.00250875,0.00272582,-0.00261414
 ,0.00016070,-0.00008199,0.00016399,0.00126206,-0.00068504,0.00010161,-
 0.00020390,0.00026445,0.00006543,0.00051863,-0.00106136,0.00095874,-0.
 00010026,0.00006055,0.00020656,-0.00015775,0.00035880,-0.00024279,-0.0
 0003181,-0.00000979,-0.00007526,0.04245929,-0.03432670,-0.05840615,-0.
 05024339,0.03772195,0.06023145,0.00006839,0.00028255,0.00012844,0.0000
 0055,-0.00005436,-0.00006151,0.00004377,0.00003260,-0.00000204,-0.0000
 1737,-0.00001003,0.00000958,0.00000447,0.00001206,-0.00000046,0.001074
 20,0.00126657,-0.00000836,0.00000599,0.00000048,-0.00000330,-0.0000026
 2,-0.00000146,0.00000021,0.00000065,0.00000068,-0.00000039,-0.00000018
 ,-0.00000012,0.00000026,-0.00000015,-0.00000017,-0.00000004,0.00000031
 ,0.00000004,-0.00000005,0.00000061,0.00000036,0.00000007,-0.00000010,-
 0.00000004,0.00000003,0.00000015,0.00000002,-0.00000014,0.00000011,0.0
 0000012,-0.00000026,0.00000039,0.00000035,-0.00000038,0.00000002,-0.00
 000019,0.00000016,-0.00000012,0.00000005,0.,0.00000021,0.00000011,0.00
 000013,0.00941931,-0.00443135,0.01817840,0.00121434,-0.00028360,0.0004
 5956,-0.00015680,-0.00007165,-0.00005604,0.00014403,-0.00006643,-0.000
 09058,0.00000051,0.00011061,0.00003715,-0.00201233,-0.00171151,0.00220
 475,0.00057806,-0.00047477,0.00091146,0.00005151,-0.00015231,0.0000279
 6,-0.00008584,0.00010204,-0.00001470,-0.11887435,0.03045989,-0.1212286
 0,-0.00926260,0.00208723,-0.01836370,0.12318241,-0.00012042,-0.0000162
 0,0.00012447,0.00013794,0.00001786,-0.00020732,0.00008934,0.00011674,0
 .00000941,-0.00006659,-0.00005220,0.00001586,0.00001277,0.00003429,-0.
 00000203,0.00109432,0.00136251,0.00019298,0.00003086,0.00000363,-0.000
 00539,-0.00001224,-0.00000475,0.00000374,0.00000197,0.00000117,-0.0000
 0031,-0.00000031,-0.00000010,0.00000015,-0.00000044,0.00000010,-0.0000
 0022,0.00000074,-0.00000036,-0.00000019,0.00000245,0.00000080,-0.00000
 054,-0.00000019,-0.00000038,0.00000018,-0.00000057,-0.00000020,0.00000
 025,0.00000023,0.00000048,-0.00000088,0.00000257,0.00000075,-0.0000008
 1,-0.00000050,0.00000007,-0.00000026,-0.00000033,-0.00000056,0.0000000
 7,0.00000067,0.00000055,0.00000045,0.00662342,-0.00529541,0.01105868,0
 .00064991,0.00002995,-0.00089696,-0.00010508,0.00031484,-0.00018890,-0
 .00005781,-0.00014136,-0.00008283,-0.00003784,0.00001208,-0.00004205,-
 0.00232025,-0.00083421,0.00149563,0.00029782,0.00018237,0.00086777,-0.
 00022488,0.00013656,-0.00018613,0.00019187,0.00022877,0.00001060,0.029
 53354,-0.05693159,0.04776776,0.00747698,-0.00324012,0.01630614,-0.0308
 3296,0.05642513,-0.00012967,-0.00042884,0.00027945,0.00001592,0.000077
 25,0.00007541,0.00009412,0.00018764,0.00002476,-0.00009456,-0.00004964
 ,-0.00000283,0.00001888,0.00004067,0.00000291,-0.00025427,-0.00110892,
 0.00123675,0.00003423,0.00000152,0.00000102,-0.00001201,-0.00000405,0.
 00000231,0.00000099,0.00000192,-0.00000120,-0.00000045,-0.00000007,-0.
 00000030,0.00000035,-0.00000044,0.00000098,0.00000077,-0.00000084,-0.0
 0000005,0.00000255,0.00000031,-0.00000039,-0.00000025,-0.00000071,0.00
 000018,-0.00000101,-0.00000005,0.00000069,0.00000036,0.00000035,-0.000
 00075,0.00000188,0.00000075,-0.00000176,0.00000012,-0.00000027,0.00000
 088,-0.00000037,-0.00000046,-0.00000016,0.00000072,0.00000050,0.000000
 84,-0.01266619,0.00248416,-0.01794974,-0.00139480,0.00009070,0.0008895
 1,0.00059246,-0.00030015,0.00012744,0.00008329,0.00007452,0.00030475,0
 .00008267,0.00000867,0.00000634,0.00422132,0.00218556,-0.00218729,-0.0
 0085073,0.00050732,-0.00104935,-0.00010064,0.00001410,0.00010893,0.000
 11919,-0.00005143,0.00035860,-0.11680095,0.04926578,-0.24258255,0.0048
 1601,-0.00186117,0.00721704,0.12527368,-0.05463395,0.26005841,0.001310
 46,0.00049991,-0.00102455,-0.00046549,-0.00011364,0.00058830,-0.000617
 11,-0.00079961,-0.00012502,0.00040762,0.00028221,-0.00008414,-0.000075
 65,-0.00020065,0.00000730,-0.00359666,-0.00461475,0.00283872,-0.000166
 01,-0.00001415,0.00001724,0.00006084,0.00002439,-0.00001458,-0.0000084
 0,-0.00000744,0.00000284,0.00000239,0.00000039,-0.00000083,0.00000067,
 0.00000069,-0.00000026,-0.00000356,0.00000279,0.00000056,-0.00001325,-
 0.00000388,0.00000279,0.00000114,0.00000277,-0.00000090,0.00000413,0.0
 0000106,-0.00000271,-0.00000137,-0.00000194,0.00000427,-0.00001062,-0.
 00000387,0.00000528,0.00000060,0.00000037,-0.00000062,0.00000149,0.000
 00239,0.00000046,-0.00000316,-0.00000239,-0.00000334,-0.00610282,-0.01
 262019,-0.00984367,0.00036566,0.00005010,-0.00049643,-0.00004659,-0.00
 002220,0.00005638,0.00024418,0.00008279,-0.00001361,-0.00038126,0.0001
 6602,0.00039219,0.00024898,0.00031087,-0.00093122,-0.00007350,0.000220
 90,0.00004756,0.00004345,0.00002329,0.00003347,0.00031861,0.00019168,0
 .00005940,-0.08558926,-0.09063833,-0.03785896,0.01066594,0.01941782,0.
 00859785,-0.00537752,-0.01236699,-0.00305363,0.08885605,0.00093382,0.0
 0122511,-0.00107747,-0.00038769,-0.00021639,0.00065381,-0.00044091,-0.
 00067172,-0.00009076,0.00036838,0.00024479,-0.00004954,-0.00006938,-0.
 00016839,0.00000180,-0.00335292,-0.00262911,0.00210509,-0.00014108,-0.
 00001144,0.00001124,0.00005259,0.00002045,-0.00001333,-0.00000690,-0.0
 0000642,0.00000256,0.00000210,0.00000047,-0.00000076,0.00000058,0.0000
 0068,-0.00000029,-0.00000309,0.00000234,0.00000049,-0.00001120,-0.0000
 0315,0.00000239,0.00000101,0.00000230,-0.00000072,0.00000388,0.0000009
 1,-0.00000248,-0.00000124,-0.00000168,0.00000360,-0.00000939,-0.000003
 46,0.00000478,0.00000056,0.00000036,-0.00000060,0.00000133,0.00000213,
 0.00000035,-0.00000282,-0.00000207,-0.00000290,-0.00107045,-0.00945194
 ,-0.00686493,0.00083768,-0.00004402,-0.00066497,0.00001645,0.00004009,
 0.00006687,0.00010660,0.00017947,0.00021412,0.00018634,0.00049868,-0.0
 0003758,0.00020611,0.00027240,-0.00072426,0.00006848,0.00025630,0.0000
 4880,-0.00006942,0.00002917,0.00006560,0.00015462,0.00020085,0.0003768
 6,-0.09276277,-0.24975073,-0.08828214,-0.00847608,-0.01253999,-0.00503
 343,0.00373519,0.00764880,0.00349927,0.10012960,0.26487521,-0.00031072
 ,-0.00009856,0.00115111,0.00019495,0.00008792,-0.00039697,0.00052858,0
 .00074743,0.00008179,-0.00035685,-0.00020685,0.00006004,0.00007299,0.0
 0017941,-0.00000280,0.00442747,0.00454227,-0.00199041,0.00013562,0.000
 00964,-0.00001390,-0.00004876,-0.00001973,0.00001133,0.00000654,0.0000
 0628,-0.00000248,-0.00000156,-0.00000030,0.00000060,-0.00000025,-0.000
 00060,0.00000024,0.00000278,-0.00000247,-0.00000038,0.00001046,0.00000
 313,-0.00000189,-0.00000084,-0.00000226,0.00000086,-0.00000300,-0.0000
 0085,0.00000192,0.00000100,0.00000145,-0.00000356,0.00000838,0.0000033
 0,-0.00000443,-0.00000021,-0.00000033,0.00000062,-0.00000120,-0.000001
 99,-0.00000050,0.00000247,0.00000183,0.00000286,0.00545882,0.01608167,
 0.00778790,-0.00021764,-0.00002850,0.00043173,0.00005268,-0.00003892,0
 .00005805,-0.00020127,0.00010666,0.00001137,0.00027221,-0.00000241,-0.
 00006017,-0.00024331,0.00007563,0.00021651,0.00005867,-0.00010771,0.00
 025051,-0.00002637,0.00007491,-0.00001984,0.00015237,0.00030978,-0.000
 42058,-0.04065481,-0.09251403,-0.08594468,-0.00271778,-0.00338894,-0.0
 0276497,-0.00740129,-0.02160538,-0.00692082,0.04079989,0.09578851,0.08
 848094\\-0.00000789,-0.00001462,-0.00000122,0.00000399,0.00000291,-0.0
 0000524,0.00001337,0.00001091,0.00001911,-0.00002830,0.00001707,-0.000
 01661,0.00001415,-0.00000844,0.00000684,0.00000055,-0.00001733,-0.0000
 1875,0.00002282,-0.00000346,-0.00000189,-0.00000712,-0.00000280,0.0000
 0510,0.00000219,-0.00000339,-0.00000179,0.00000041,0.00000088,-0.00000
 307,0.00000075,-0.00000026,-0.00000303,-0.00000066,0.00000093,-0.00000
 237,-0.00000917,-0.00000304,0.00000755,-0.00000527,0.00000448,0.000002
 60,-0.00000226,0.00000332,0.00000031,-0.00000227,0.00000251,0.00000174
 ,-0.00000230,-0.00000185,-0.00000038,0.00000102,-0.00000147,-0.0000000
 7,-0.00000110,0.00000156,0.00000328,-0.00000105,0.00000041,-0.00000049
 ,-0.00000079,0.00002259,0.00001725,0.00000381,-0.00000681,0.00000014,0
 .00000059,0.00000112,-0.00000267,-0.00000066,0.00000069,-0.00000439,0.
 00000259,0.00000181,-0.00000585,0.00000046,-0.00000040,0.00000284,-0.0
 0000209,0.00000317,-0.00000059,-0.00000141,0.00000052,0.00000035,0.000
 00087,0.00000087,0.00000058,0.00000065,-0.00000628,0.00000078,0.000001
 90,-0.00000150,0.00000182,0.00000124,-0.00000359,-0.00000041,0.0000009
 9,-0.00000051,-0.00000146\\\@


 IF I AM NOT FOR MYSELF, WHO WILL BE?
 BUT IF I AM ONLY FOR MYSELF, WHAT AM I?
 THOUGH A SEEKER SINCE MY BIRTH,
 HERE IS ALL I'VE LEARNED ON EARTH,
 THIS IS THE GIST OF WHAT I KNOW:
 GIVE ADVICE AND BUY A FOE.

 PRESSED FOR RULES AND VERITIES,
 ALL I RECOLLECT ARE THESE:
 FEED A COLD TO STARVE A FEVER,
 ARGUE WITH NO TRUE-BELIEVER.
 THINK-TOO-LONG IS NEVER-ACT,
 SCRATCH A MYTH AND FIND A FACT.

 STITCH IN TIME SAVES TWENTY STITCHES,
 GIVE THE RICH TO PLEASE THEM, RICHES.
 GIVE TO LOVE YOU HEARTH AND HALL,
 BUT DO NOT GIVE ADVICE AT ALL.

                                  -- HILLEL
 Job cpu time:       0 days  2 hours 53 minutes 37.7 seconds.
 Elapsed time:       0 days  0 hours 17 minutes 22.8 seconds.
 File lengths (MBytes):  RWF=    430 Int=      0 D2E=      0 Chk=     18 Scr=      1
 Normal termination of Gaussian 16 at Fri Mar 12 23:40:08 2021.
