 Entering Gaussian System, Link 0=/opt/g16avx/g16
 Input=BocO_w.gjf
 Output=BocO_w.log
 Initial command:
 /opt/g16avx/l1.exe "/home/scratch/Gau-35827.inp" -scrdir="/home/scratch/"
 Entering Link 1 = /opt/g16avx/l1.exe PID=     35828.
  
 Copyright (c) 1988,1990,1992,1993,1995,1998,2003,2009,2016,
            Gaussian, Inc.  All Rights Reserved.
  
 This is part of the Gaussian(R) 16 program.  It is based on
 the Gaussian(R) 09 system (copyright 2009, Gaussian, Inc.),
 the Gaussian(R) 03 system (copyright 2003, Gaussian, Inc.),
 the Gaussian(R) 98 system (copyright 1998, Gaussian, Inc.),
 the Gaussian(R) 94 system (copyright 1995, Gaussian, Inc.),
 the Gaussian 92(TM) system (copyright 1992, Gaussian, Inc.),
 the Gaussian 90(TM) system (copyright 1990, Gaussian, Inc.),
 the Gaussian 88(TM) system (copyright 1988, Gaussian, Inc.),
 the Gaussian 86(TM) system (copyright 1986, Carnegie Mellon
 University), and the Gaussian 82(TM) system (copyright 1983,
 Carnegie Mellon University). Gaussian is a federally registered
 trademark of Gaussian, Inc.
  
 This software contains proprietary and confidential information,
 including trade secrets, belonging to Gaussian, Inc.
  
 This software is provided under written license and may be
 used, copied, transmitted, or stored only in accord with that
 written license.
  
 The following legend is applicable only to US Government
 contracts under FAR:
  
                    RESTRICTED RIGHTS LEGEND
  
 Use, reproduction and disclosure by the US Government is
 subject to restrictions as set forth in subparagraphs (a)
 and (c) of the Commercial Computer Software - Restricted
 Rights clause in FAR 52.227-19.
  
 Gaussian, Inc.
 340 Quinnipiac St., Bldg. 40, Wallingford CT 06492
  
  
 ---------------------------------------------------------------
 Warning -- This program may not be used in any manner that
 competes with the business of Gaussian, Inc. or will provide
 assistance to any competitor of Gaussian, Inc.  The licensee
 of this program is prohibited from giving any competitor of
 Gaussian, Inc. access to this program.  By using this program,
 the user acknowledges that Gaussian, Inc. is engaged in the
 business of creating and licensing software in the field of
 computational chemistry and represents and warrants to the
 licensee that it is not a competitor of Gaussian, Inc. and that
 it will not use this program in any manner prohibited above.
 ---------------------------------------------------------------
  

 Cite this work as:
 Gaussian 16, Revision A.03,
 M. J. Frisch, G. W. Trucks, H. B. Schlegel, G. E. Scuseria, 
 M. A. Robb, J. R. Cheeseman, G. Scalmani, V. Barone, 
 G. A. Petersson, H. Nakatsuji, X. Li, M. Caricato, A. V. Marenich, 
 J. Bloino, B. G. Janesko, R. Gomperts, B. Mennucci, H. P. Hratchian, 
 J. V. Ortiz, A. F. Izmaylov, J. L. Sonnenberg, D. Williams-Young, 
 F. Ding, F. Lipparini, F. Egidi, J. Goings, B. Peng, A. Petrone, 
 T. Henderson, D. Ranasinghe, V. G. Zakrzewski, J. Gao, N. Rega, 
 G. Zheng, W. Liang, M. Hada, M. Ehara, K. Toyota, R. Fukuda, 
 J. Hasegawa, M. Ishida, T. Nakajima, Y. Honda, O. Kitao, H. Nakai, 
 T. Vreven, K. Throssell, J. A. Montgomery, Jr., J. E. Peralta, 
 F. Ogliaro, M. J. Bearpark, J. J. Heyd, E. N. Brothers, K. N. Kudin, 
 V. N. Staroverov, T. A. Keith, R. Kobayashi, J. Normand, 
 K. Raghavachari, A. P. Rendell, J. C. Burant, S. S. Iyengar, 
 J. Tomasi, M. Cossi, J. M. Millam, M. Klene, C. Adamo, R. Cammi, 
 J. W. Ochterski, R. L. Martin, K. Morokuma, O. Farkas, 
 J. B. Foresman, and D. J. Fox, Gaussian, Inc., Wallingford CT, 2016.
 
 ******************************************
 Gaussian 16:  ES64L-G16RevA.03 25-Dec-2016
                16-Mar-2021 
 ******************************************
 %chk=boc_o_w.chk
 %nprocshared=20
 Will use up to   20 processors via shared memory.
 %mem=46GB
 ----------------------------------------------------------------------
 #p opt PBE1PBE/DEF2SVP empiricaldispersion=gd3bj scrf=(SMD, solvent=Wa
 ter) freq=noraman
 ----------------------------------------------------------------------
 1/18=20,19=15,26=3,38=1/1,3;
 2/9=110,12=2,17=6,18=5,40=1/2;
 3/5=43,7=101,11=2,25=1,30=1,70=32201,71=1,72=1,74=-13,124=41/1,2,3;
 4//1;
 5/5=2,38=5,53=1/2;
 6/7=2,8=2,9=2,10=2,28=1/1;
 7//1,2,3,16;
 1/18=20,19=15,26=3/3(2);
 2/9=110/2;
 99//99;
 2/9=110/2;
 3/5=43,7=101,11=2,25=1,30=1,70=32205,71=1,72=1,74=-13,124=41/1,2,3;
 4/5=5,16=3,69=1/1;
 5/5=2,38=5,53=1/2;
 7//1,2,3,16;
 1/18=20,19=15,26=3/3(-5);
 2/9=110/2;
 6/7=2,8=2,9=2,10=2,19=2,28=1/1;
 99/9=1/99;
 Leave Link    1 at Tue Mar 16 20:27:26 2021, MaxMem=  6174015488 cpu:               1.8 elap:               0.1
 (Enter /opt/g16avx/l101.exe)
 ----
 Name
 ----
 Symbolic Z-matrix:
 Charge = -1 Multiplicity = 1
 C                     0.94617  -0.42134   0.19125 
 O                     0.69782   0.24254   1.15784 
 O                     0.06445  -1.29773  -0.3714 
 C                    -1.27876  -1.15289  -0.136 
 O                    -1.94709  -2.10177   0.15224 
 O                     2.0582   -0.50994  -0.49086 
 O                    -1.63952   0.08405  -0.35154 
 C                    -3.0041    0.5581   -0.07356 
 C                    -2.90761   2.0419   -0.38061 
 H                    -2.15901   2.52103   0.26668 
 H                    -2.61922   2.20132  -1.42961 
 H                    -3.88063   2.52241  -0.2083 
 C                    -3.32402   0.32037   1.39373 
 H                    -3.39806  -0.75078   1.62094 
 H                    -2.54733   0.7691    2.03012 
 H                    -4.28604   0.79406   1.63536 
 C                    -3.97904  -0.13835  -1.00874 
 H                    -3.68237   0.01525  -2.05673 
 H                    -4.0277   -1.21519  -0.80365 
 H                    -4.9819    0.29025  -0.86951 
 C                     3.25968   0.24359  -0.10094 
 C                     2.97001   1.73384  -0.18885 
 H                     2.60134   1.99421  -1.19203 
 H                     2.22744   2.0424    0.55764 
 H                     3.89924   2.29313  -0.00909 
 C                     3.69901  -0.18678   1.2898 
 H                     2.96571   0.10668   2.05144 
 H                     3.84068  -1.27701   1.32733 
 H                     4.65953   0.29186   1.52838 
 C                     4.27303  -0.17941  -1.14991 
 H                     4.43912  -1.26565  -1.11173 
 H                     3.92157   0.08798  -2.15686 
 H                     5.23071   0.32759  -0.96771 
 
 ITRead=  0  0  0  0  0  0  0  0  0  0  0  0  0  0  0  0  0  0  0  0
 ITRead=  0  0  0  0  0  0  0  0  0  0  0  0  0
 MicOpt= -1 -1 -1 -1 -1 -1 -1 -1 -1 -1 -1 -1 -1 -1 -1 -1 -1 -1 -1 -1
 MicOpt= -1 -1 -1 -1 -1 -1 -1 -1 -1 -1 -1 -1 -1
 NAtoms=     33 NQM=       33 NQMF=       0 NMMI=      0 NMMIF=      0
                NMic=       0 NMicF=      0.
                    Isotopes and Nuclear Properties:
 (Nuclear quadrupole moments (NQMom) in fm**2, nuclear magnetic moments (NMagM)
  in nuclear magnetons)

  Atom         1           2           3           4           5           6           7           8           9          10
 IAtWgt=          12          16          16          12          16          16          16          12          12           1
 AtmWgt=  12.0000000  15.9949146  15.9949146  12.0000000  15.9949146  15.9949146  15.9949146  12.0000000  12.0000000   1.0078250
 NucSpn=           0           0           0           0           0           0           0           0           0           1
 AtZEff=  -0.0000000  -0.0000000  -0.0000000  -0.0000000  -0.0000000  -0.0000000  -0.0000000  -0.0000000  -0.0000000  -0.0000000
 NQMom=    0.0000000   0.0000000   0.0000000   0.0000000   0.0000000   0.0000000   0.0000000   0.0000000   0.0000000   0.0000000
 NMagM=    0.0000000   0.0000000   0.0000000   0.0000000   0.0000000   0.0000000   0.0000000   0.0000000   0.0000000   2.7928460
 AtZNuc=   6.0000000   8.0000000   8.0000000   6.0000000   8.0000000   8.0000000   8.0000000   6.0000000   6.0000000   1.0000000

  Atom        11          12          13          14          15          16          17          18          19          20
 IAtWgt=           1           1          12           1           1           1          12           1           1           1
 AtmWgt=   1.0078250   1.0078250  12.0000000   1.0078250   1.0078250   1.0078250  12.0000000   1.0078250   1.0078250   1.0078250
 NucSpn=           1           1           0           1           1           1           0           1           1           1
 AtZEff=  -0.0000000  -0.0000000  -0.0000000  -0.0000000  -0.0000000  -0.0000000  -0.0000000  -0.0000000  -0.0000000  -0.0000000
 NQMom=    0.0000000   0.0000000   0.0000000   0.0000000   0.0000000   0.0000000   0.0000000   0.0000000   0.0000000   0.0000000
 NMagM=    2.7928460   2.7928460   0.0000000   2.7928460   2.7928460   2.7928460   0.0000000   2.7928460   2.7928460   2.7928460
 AtZNuc=   1.0000000   1.0000000   6.0000000   1.0000000   1.0000000   1.0000000   6.0000000   1.0000000   1.0000000   1.0000000

  Atom        21          22          23          24          25          26          27          28          29          30
 IAtWgt=          12          12           1           1           1          12           1           1           1          12
 AtmWgt=  12.0000000  12.0000000   1.0078250   1.0078250   1.0078250  12.0000000   1.0078250   1.0078250   1.0078250  12.0000000
 NucSpn=           0           0           1           1           1           0           1           1           1           0
 AtZEff=  -0.0000000  -0.0000000  -0.0000000  -0.0000000  -0.0000000  -0.0000000  -0.0000000  -0.0000000  -0.0000000  -0.0000000
 NQMom=    0.0000000   0.0000000   0.0000000   0.0000000   0.0000000   0.0000000   0.0000000   0.0000000   0.0000000   0.0000000
 NMagM=    0.0000000   0.0000000   2.7928460   2.7928460   2.7928460   0.0000000   2.7928460   2.7928460   2.7928460   0.0000000
 AtZNuc=   6.0000000   6.0000000   1.0000000   1.0000000   1.0000000   6.0000000   1.0000000   1.0000000   1.0000000   6.0000000

  Atom        31          32          33
 IAtWgt=           1           1           1
 AtmWgt=   1.0078250   1.0078250   1.0078250
 NucSpn=           1           1           1
 AtZEff=  -0.0000000  -0.0000000  -0.0000000
 NQMom=    0.0000000   0.0000000   0.0000000
 NMagM=    2.7928460   2.7928460   2.7928460
 AtZNuc=   1.0000000   1.0000000   1.0000000
 Leave Link  101 at Tue Mar 16 20:27:27 2021, MaxMem=  6174015488 cpu:               7.3 elap:               0.4
 (Enter /opt/g16avx/l103.exe)

 GradGradGradGradGradGradGradGradGradGradGradGradGradGradGradGradGradGrad
 Berny optimization.
 Initialization pass.
                           ----------------------------
                           !    Initial Parameters    !
                           ! (Angstroms and Degrees)  !
 --------------------------                            --------------------------
 ! Name  Definition              Value          Derivative Info.                !
 --------------------------------------------------------------------------------
 ! R1    R(1,2)                  1.1986         estimate D2E/DX2                !
 ! R2    R(1,3)                  1.3646         estimate D2E/DX2                !
 ! R3    R(1,6)                  1.3076         estimate D2E/DX2                !
 ! R4    R(3,4)                  1.3714         estimate D2E/DX2                !
 ! R5    R(4,5)                  1.1959         estimate D2E/DX2                !
 ! R6    R(4,7)                  1.3064         estimate D2E/DX2                !
 ! R7    R(6,21)                 1.4708         estimate D2E/DX2                !
 ! R8    R(7,8)                  1.4711         estimate D2E/DX2                !
 ! R9    R(8,9)                  1.5183         estimate D2E/DX2                !
 ! R10   R(8,13)                 1.5205         estimate D2E/DX2                !
 ! R11   R(8,17)                 1.5199         estimate D2E/DX2                !
 ! R12   R(9,10)                 1.0995         estimate D2E/DX2                !
 ! R13   R(9,11)                 1.0995         estimate D2E/DX2                !
 ! R14   R(9,12)                 1.0988         estimate D2E/DX2                !
 ! R15   R(13,14)                1.0975         estimate D2E/DX2                !
 ! R16   R(13,15)                1.0998         estimate D2E/DX2                !
 ! R17   R(13,16)                1.0992         estimate D2E/DX2                !
 ! R18   R(17,18)                1.0999         estimate D2E/DX2                !
 ! R19   R(17,19)                1.0973         estimate D2E/DX2                !
 ! R20   R(17,20)                1.0995         estimate D2E/DX2                !
 ! R21   R(21,22)                1.5207         estimate D2E/DX2                !
 ! R22   R(21,26)                1.5207         estimate D2E/DX2                !
 ! R23   R(21,30)                1.5186         estimate D2E/DX2                !
 ! R24   R(22,23)                1.1            estimate D2E/DX2                !
 ! R25   R(22,24)                1.0972         estimate D2E/DX2                !
 ! R26   R(22,25)                1.0994         estimate D2E/DX2                !
 ! R27   R(26,27)                1.0972         estimate D2E/DX2                !
 ! R28   R(26,28)                1.1            estimate D2E/DX2                !
 ! R29   R(26,29)                1.0994         estimate D2E/DX2                !
 ! R30   R(30,31)                1.0995         estimate D2E/DX2                !
 ! R31   R(30,32)                1.0995         estimate D2E/DX2                !
 ! R32   R(30,33)                1.0988         estimate D2E/DX2                !
 ! A1    A(2,1,3)              123.6655         estimate D2E/DX2                !
 ! A2    A(2,1,6)              129.3765         estimate D2E/DX2                !
 ! A3    A(3,1,6)              106.9126         estimate D2E/DX2                !
 ! A4    A(1,3,4)              119.6222         estimate D2E/DX2                !
 ! A5    A(3,4,5)              120.3291         estimate D2E/DX2                !
 ! A6    A(3,4,7)              110.009          estimate D2E/DX2                !
 ! A7    A(5,4,7)              129.5476         estimate D2E/DX2                !
 ! A8    A(1,6,21)             121.4464         estimate D2E/DX2                !
 ! A9    A(4,7,8)              122.0124         estimate D2E/DX2                !
 ! A10   A(7,8,9)              102.5775         estimate D2E/DX2                !
 ! A11   A(7,8,13)             109.0959         estimate D2E/DX2                !
 ! A12   A(7,8,17)             109.3342         estimate D2E/DX2                !
 ! A13   A(9,8,13)             111.1824         estimate D2E/DX2                !
 ! A14   A(9,8,17)             111.3543         estimate D2E/DX2                !
 ! A15   A(13,8,17)            112.7778         estimate D2E/DX2                !
 ! A16   A(8,9,10)             110.4917         estimate D2E/DX2                !
 ! A17   A(8,9,11)             110.5674         estimate D2E/DX2                !
 ! A18   A(8,9,12)             109.8395         estimate D2E/DX2                !
 ! A19   A(10,9,11)            108.656          estimate D2E/DX2                !
 ! A20   A(10,9,12)            108.6641         estimate D2E/DX2                !
 ! A21   A(11,9,12)            108.5696         estimate D2E/DX2                !
 ! A22   A(8,13,14)            111.5055         estimate D2E/DX2                !
 ! A23   A(8,13,15)            110.2432         estimate D2E/DX2                !
 ! A24   A(8,13,16)            109.2029         estimate D2E/DX2                !
 ! A25   A(14,13,15)           109.0298         estimate D2E/DX2                !
 ! A26   A(14,13,16)           108.424          estimate D2E/DX2                !
 ! A27   A(15,13,16)           108.3632         estimate D2E/DX2                !
 ! A28   A(8,17,18)            110.4406         estimate D2E/DX2                !
 ! A29   A(8,17,19)            111.2923         estimate D2E/DX2                !
 ! A30   A(8,17,20)            109.1803         estimate D2E/DX2                !
 ! A31   A(18,17,19)           109.0921         estimate D2E/DX2                !
 ! A32   A(18,17,20)           108.1939         estimate D2E/DX2                !
 ! A33   A(19,17,20)           108.5687         estimate D2E/DX2                !
 ! A34   A(6,21,22)            109.3373         estimate D2E/DX2                !
 ! A35   A(6,21,26)            109.479          estimate D2E/DX2                !
 ! A36   A(6,21,30)            102.6661         estimate D2E/DX2                !
 ! A37   A(22,21,26)           112.6595         estimate D2E/DX2                !
 ! A38   A(22,21,30)           111.1092         estimate D2E/DX2                !
 ! A39   A(26,21,30)           111.1073         estimate D2E/DX2                !
 ! A40   A(21,22,23)           110.3961         estimate D2E/DX2                !
 ! A41   A(21,22,24)           111.4184         estimate D2E/DX2                !
 ! A42   A(21,22,25)           109.1529         estimate D2E/DX2                !
 ! A43   A(23,22,24)           109.0916         estimate D2E/DX2                !
 ! A44   A(23,22,25)           108.1791         estimate D2E/DX2                !
 ! A45   A(24,22,25)           108.5259         estimate D2E/DX2                !
 ! A46   A(21,26,27)           111.4725         estimate D2E/DX2                !
 ! A47   A(21,26,28)           110.4201         estimate D2E/DX2                !
 ! A48   A(21,26,29)           109.1277         estimate D2E/DX2                !
 ! A49   A(27,26,28)           109.1149         estimate D2E/DX2                !
 ! A50   A(27,26,29)           108.471          estimate D2E/DX2                !
 ! A51   A(28,26,29)           108.154          estimate D2E/DX2                !
 ! A52   A(21,30,31)           110.6092         estimate D2E/DX2                !
 ! A53   A(21,30,32)           110.5823         estimate D2E/DX2                !
 ! A54   A(21,30,33)           109.7871         estimate D2E/DX2                !
 ! A55   A(31,30,32)           108.6829         estimate D2E/DX2                !
 ! A56   A(31,30,33)           108.5672         estimate D2E/DX2                !
 ! A57   A(32,30,33)           108.5561         estimate D2E/DX2                !
 ! D1    D(2,1,3,4)             21.3483         estimate D2E/DX2                !
 ! D2    D(6,1,3,4)           -160.8998         estimate D2E/DX2                !
 ! D3    D(2,1,6,21)             1.4379         estimate D2E/DX2                !
 ! D4    D(3,1,6,21)          -176.1415         estimate D2E/DX2                !
 ! D5    D(1,3,4,5)           -134.0539         estimate D2E/DX2                !
 ! D6    D(1,3,4,7)             49.4745         estimate D2E/DX2                !
 ! D7    D(3,4,7,8)           -174.9482         estimate D2E/DX2                !
 ! D8    D(5,4,7,8)              9.002          estimate D2E/DX2                !
 ! D9    D(1,6,21,22)          -62.5569         estimate D2E/DX2                !
 ! D10   D(1,6,21,26)           61.3054         estimate D2E/DX2                !
 ! D11   D(1,6,21,30)          179.4045         estimate D2E/DX2                !
 ! D12   D(4,7,8,9)            176.1416         estimate D2E/DX2                !
 ! D13   D(4,7,8,13)            58.1706         estimate D2E/DX2                !
 ! D14   D(4,7,8,17)           -65.5856         estimate D2E/DX2                !
 ! D15   D(7,8,9,10)           -60.0731         estimate D2E/DX2                !
 ! D16   D(7,8,9,11)            60.2564         estimate D2E/DX2                !
 ! D17   D(7,8,9,12)          -179.9431         estimate D2E/DX2                !
 ! D18   D(13,8,9,10)           56.4107         estimate D2E/DX2                !
 ! D19   D(13,8,9,11)          176.7402         estimate D2E/DX2                !
 ! D20   D(13,8,9,12)          -63.4593         estimate D2E/DX2                !
 ! D21   D(17,8,9,10)         -176.9103         estimate D2E/DX2                !
 ! D22   D(17,8,9,11)          -56.5807         estimate D2E/DX2                !
 ! D23   D(17,8,9,12)           63.2198         estimate D2E/DX2                !
 ! D24   D(7,8,13,14)          -67.7609         estimate D2E/DX2                !
 ! D25   D(7,8,13,15)           53.4935         estimate D2E/DX2                !
 ! D26   D(7,8,13,16)          172.4411         estimate D2E/DX2                !
 ! D27   D(9,8,13,14)          179.825          estimate D2E/DX2                !
 ! D28   D(9,8,13,15)          -58.9206         estimate D2E/DX2                !
 ! D29   D(9,8,13,16)           60.0269         estimate D2E/DX2                !
 ! D30   D(17,8,13,14)          53.9319         estimate D2E/DX2                !
 ! D31   D(17,8,13,15)         175.1863         estimate D2E/DX2                !
 ! D32   D(17,8,13,16)         -65.8662         estimate D2E/DX2                !
 ! D33   D(7,8,17,18)          -55.4971         estimate D2E/DX2                !
 ! D34   D(7,8,17,19)           65.828          estimate D2E/DX2                !
 ! D35   D(7,8,17,20)         -174.3422         estimate D2E/DX2                !
 ! D36   D(9,8,17,18)           57.1446         estimate D2E/DX2                !
 ! D37   D(9,8,17,19)          178.4696         estimate D2E/DX2                !
 ! D38   D(9,8,17,20)          -61.7005         estimate D2E/DX2                !
 ! D39   D(13,8,17,18)        -177.055          estimate D2E/DX2                !
 ! D40   D(13,8,17,19)         -55.7299         estimate D2E/DX2                !
 ! D41   D(13,8,17,20)          64.0999         estimate D2E/DX2                !
 ! D42   D(6,21,22,23)         -54.8116         estimate D2E/DX2                !
 ! D43   D(6,21,22,24)          66.5674         estimate D2E/DX2                !
 ! D44   D(6,21,22,25)        -173.595          estimate D2E/DX2                !
 ! D45   D(26,21,22,23)       -176.7808         estimate D2E/DX2                !
 ! D46   D(26,21,22,24)        -55.4018         estimate D2E/DX2                !
 ! D47   D(26,21,22,25)         64.4358         estimate D2E/DX2                !
 ! D48   D(30,21,22,23)         57.8054         estimate D2E/DX2                !
 ! D49   D(30,21,22,24)        179.1843         estimate D2E/DX2                !
 ! D50   D(30,21,22,25)        -60.978          estimate D2E/DX2                !
 ! D51   D(6,21,26,27)         -66.7053         estimate D2E/DX2                !
 ! D52   D(6,21,26,28)          54.7564         estimate D2E/DX2                !
 ! D53   D(6,21,26,29)         173.5079         estimate D2E/DX2                !
 ! D54   D(22,21,26,27)         55.1838         estimate D2E/DX2                !
 ! D55   D(22,21,26,28)        176.6454         estimate D2E/DX2                !
 ! D56   D(22,21,26,29)        -64.603          estimate D2E/DX2                !
 ! D57   D(30,21,26,27)       -179.4014         estimate D2E/DX2                !
 ! D58   D(30,21,26,28)        -57.9397         estimate D2E/DX2                !
 ! D59   D(30,21,26,29)         60.8118         estimate D2E/DX2                !
 ! D60   D(6,21,30,31)         -60.4274         estimate D2E/DX2                !
 ! D61   D(6,21,30,32)          60.0226         estimate D2E/DX2                !
 ! D62   D(6,21,30,33)         179.7823         estimate D2E/DX2                !
 ! D63   D(22,21,30,31)       -177.207          estimate D2E/DX2                !
 ! D64   D(22,21,30,32)        -56.7571         estimate D2E/DX2                !
 ! D65   D(22,21,30,33)         63.0026         estimate D2E/DX2                !
 ! D66   D(26,21,30,31)         56.5161         estimate D2E/DX2                !
 ! D67   D(26,21,30,32)        176.966          estimate D2E/DX2                !
 ! D68   D(26,21,30,33)        -63.2743         estimate D2E/DX2                !
 --------------------------------------------------------------------------------
 Trust Radius=3.00D-01 FncErr=1.00D-07 GrdErr=1.00D-06 EigMax=2.50D+02 EigMin=1.00D-04
 Number of steps in this run=    167 maximum allowed number of steps=    198.
 GradGradGradGradGradGradGradGradGradGradGradGradGradGradGradGradGradGrad

 Leave Link  103 at Tue Mar 16 20:27:27 2021, MaxMem=  6174015488 cpu:               0.4 elap:               0.0
 (Enter /opt/g16avx/l202.exe)
                          Input orientation:                          
 ---------------------------------------------------------------------
 Center     Atomic      Atomic             Coordinates (Angstroms)
 Number     Number       Type             X           Y           Z
 ---------------------------------------------------------------------
      1          6           0        0.946165   -0.421340    0.191246
      2          8           0        0.697817    0.242539    1.157844
      3          8           0        0.064448   -1.297728   -0.371400
      4          6           0       -1.278760   -1.152890   -0.135995
      5          8           0       -1.947092   -2.101769    0.152241
      6          8           0        2.058199   -0.509941   -0.490861
      7          8           0       -1.639521    0.084049   -0.351537
      8          6           0       -3.004099    0.558103   -0.073555
      9          6           0       -2.907610    2.041895   -0.380610
     10          1           0       -2.159010    2.521030    0.266682
     11          1           0       -2.619220    2.201324   -1.429610
     12          1           0       -3.880626    2.522414   -0.208303
     13          6           0       -3.324023    0.320370    1.393726
     14          1           0       -3.398061   -0.750780    1.620939
     15          1           0       -2.547325    0.769101    2.030118
     16          1           0       -4.286044    0.794063    1.635364
     17          6           0       -3.979038   -0.138348   -1.008742
     18          1           0       -3.682372    0.015250   -2.056728
     19          1           0       -4.027703   -1.215189   -0.803645
     20          1           0       -4.981900    0.290252   -0.869508
     21          6           0        3.259676    0.243585   -0.100941
     22          6           0        2.970005    1.733844   -0.188852
     23          1           0        2.601341    1.994205   -1.192030
     24          1           0        2.227444    2.042396    0.557636
     25          1           0        3.899240    2.293125   -0.009088
     26          6           0        3.699012   -0.186783    1.289804
     27          1           0        2.965711    0.106683    2.051437
     28          1           0        3.840684   -1.277013    1.327332
     29          1           0        4.659534    0.291862    1.528381
     30          6           0        4.273025   -0.179410   -1.149911
     31          1           0        4.439117   -1.265654   -1.111734
     32          1           0        3.921566    0.087981   -2.156858
     33          1           0        5.230709    0.327591   -0.967711
 ---------------------------------------------------------------------
                    Distance matrix (angstroms):
                    1          2          3          4          5
     1  C    0.000000
     2  O    1.198634   0.000000
     3  O    1.364570   2.261010   0.000000
     4  C    2.364856   2.743738   1.371350   0.000000
     5  O    3.346087   3.674583   2.228671   1.195876   0.000000
     6  O    1.307570   2.266074   2.147073   3.416813   4.357735
     7  O    2.689945   2.786844   2.193904   1.306379   2.264110
     8  C    4.078482   3.914091   3.598444   2.430677   2.871092
     9  C    4.609352   4.313192   4.470603   3.594390   4.286779
    10  H    4.278474   3.761270   4.464731   3.799300   4.629069
    11  H    4.713545   4.640527   4.534892   3.836799   4.633640
    12  H    5.667737   5.293990   5.493969   4.503642   5.025098
    13  C    4.497844   4.029503   4.149174   2.948498   3.050243
    14  H    4.585287   4.239971   4.032063   2.782076   2.467297
    15  H    4.123478   3.401334   4.106145   3.161543   3.482613
    16  H    5.562256   5.036971   5.227760   3.996510   4.007018
    17  C    5.077172   5.168379   4.254427   3.013716   3.054784
    18  H    5.164044   5.437940   4.313108   3.291066   3.517458
    19  H    5.134137   5.320052   4.115744   2.829545   2.455338
    20  H    6.064117   6.030889   5.313701   4.041528   3.996973
    21  C    2.424836   2.854411   3.557847   4.748555   5.716224
    22  C    2.980809   3.033219   4.203096   5.136928   6.245488
    23  H    3.238505   3.494803   4.236282   5.106329   6.266762
    24  H    2.801056   2.437108   4.086329   4.794209   5.896202
    25  H    4.016106   3.976901   5.266035   6.221158   7.315786
    26  C    2.973216   3.034617   4.147753   5.267303   6.069573
    27  H    2.796012   2.441374   4.032349   4.938311   5.711378
    28  H    3.225075   3.495050   4.140782   5.325921   5.963171
    29  H    4.010698   3.979313   5.220228   6.334098   7.160359
    30  C    3.595168   4.276200   4.423668   5.726954   6.639346
    31  H    3.822478   4.628494   4.436987   5.801629   6.563565
    32  H    3.824397   4.626413   4.470504   5.715509   6.675934
    33  H    4.501266   5.007228   5.448624   6.727315   7.660085
                    6          7          8          9         10
     6  O    0.000000
     7  O    3.747715   0.000000
     8  C    5.190542   1.471079   0.000000
     9  C    5.584199   2.332821   1.518299   0.000000
    10  H    5.248381   2.567283   2.164028   1.099527   0.000000
    11  H    5.487300   2.570001   2.164992   1.099540   1.786452
    12  H    6.674178   3.314920   2.155220   1.098794   1.785938
    13  C    5.762760   2.437076   1.520454   2.507053   2.733201
    14  H    5.855636   2.771293   2.177083   3.470702   3.751533
    15  H    5.403900   2.639258   2.163008   2.749804   2.515899
    16  H    6.816941   3.384668   2.149294   2.742502   3.062675
    17  C    6.070792   2.440229   1.519909   2.509177   3.465761
    18  H    5.973435   2.661888   2.165114   2.741700   3.741363
    19  H    6.134608   2.756054   2.173790   3.470182   4.312418
    20  H    7.095539   3.388556   2.148716   2.758614   3.773063
    21  C    1.470845   4.908195   6.271726   6.430206   5.889317
    22  C    2.440732   4.898573   6.089793   5.888805   5.209028
    23  H    2.656575   4.726525   5.893584   5.568592   5.006628
    24  H    2.764492   4.428898   5.474538   5.220066   4.422072
    25  H    3.388025   5.972869   7.118325   6.821609   6.068804
    26  C    2.442840   5.591716   6.880792   7.169710   6.534176
    27  H    2.768950   5.194512   6.352795   6.644983   5.939460
    28  H    2.659225   5.890988   7.223655   7.711789   7.179585
    29  H    3.389273   6.576882   7.833796   7.998033   7.283791
    30  C    2.334320   5.972019   7.393173   7.555630   7.118299
    31  H    2.573977   6.272913   7.733393   8.090045   7.731383
    32  H    2.570057   5.846784   7.247482   7.321918   6.983314
    33  H    3.315670   6.902104   8.286417   8.337611   7.806590
                   11         12         13         14         15
    11  H    0.000000
    12  H    1.784891   0.000000
    13  C    3.464962   2.779443   0.000000
    14  H    4.315943   3.780581   1.097483   0.000000
    15  H    3.745150   3.140434   1.099825   1.789195   0.000000
    16  H    3.762014   2.559427   1.099208   1.781926   1.783143
    17  C    2.738668   2.780295   2.532058   2.761853   3.479646
    18  H    2.510476   3.121194   3.482405   3.767342   4.308008
    19  H    3.748095   3.787577   2.771560   2.547692   3.762863
    20  H    3.090011   2.575373   2.805653   3.129636   3.816318
    21  C    6.337154   7.495899   6.751668   6.948316   6.207966
    22  C    5.744341   6.895895   6.642082   7.071136   6.024574
    23  H    5.230067   6.577433   6.678158   7.172208   6.196118
    24  H    5.240664   6.174593   5.872240   6.370145   5.156346
    25  H    6.672078   7.785793   7.618082   8.072976   6.931032
    26  C    7.281368   8.187490   7.042090   7.127144   6.362272
    27  H    6.906277   7.603585   6.327638   6.435695   5.552731
    28  H    7.837724   8.741421   7.340917   7.263784   6.744416
    29  H    8.085544   8.995875   7.984743   8.125300   7.240049
    30  C    7.297203   8.641094   8.027142   8.176163   7.584816
    31  H    7.870267   9.186064   8.310183   8.315886   7.926023
    32  H    6.912090   8.402234   8.072126   8.279626   7.735712
    33  H    8.083663   9.402679   8.874676   9.073018   8.347438
                   16         17         18         19         20
    16  H    0.000000
    17  C    2.820450   0.000000
    18  H    3.821323   1.099944   0.000000
    19  H    3.170583   1.097278   1.789819   0.000000
    20  H    2.648098   1.099462   1.781542   1.783587   0.000000
    21  C    7.762453   7.305406   7.215904   7.465099   8.277466
    22  C    7.540637   7.243378   7.120158   7.618575   8.110490
    23  H    7.541258   6.919737   6.644472   7.375315   7.779012
    24  H    6.719030   6.762367   6.772750   7.182744   7.555223
    25  H    8.482351   8.305338   8.176942   8.704942   9.144751
    26  C    8.052490   8.014868   8.107091   8.071076   8.958148
    27  H    7.296133   7.593041   7.815522   7.668551   8.469365
    28  H    8.392136   8.240258   8.349741   8.152079   9.226073
    29  H    8.960302   9.013712   9.083882   9.120177   9.935146
    30  C    9.053346   8.253373   8.009279   8.372265   9.271076
    31  H    9.376429   8.493925   8.276008   8.472574   9.551706
    32  H    9.068868   7.986798   7.604945   8.168250   8.998327
    33  H    9.877357   9.221617   8.984794   9.387507  10.213149
                   21         22         23         24         25
    21  C    0.000000
    22  C    1.520694   0.000000
    23  H    2.165306   1.100030   0.000000
    24  H    2.175993   1.097199   1.789819   0.000000
    25  H    2.148975   1.099358   1.781361   1.782959   0.000000
    26  C    1.520659   2.531143   3.481536   2.769625   2.806627
    27  H    2.176669   2.768856   3.770356   2.554107   3.146072
    28  H    2.165584   3.481689   4.310919   3.770073   3.812523
    29  H    2.148633   2.807616   3.812449   3.149885   2.635699
    30  C    1.518598   2.506399   2.742427   3.469372   2.748567
    31  H    2.165776   3.465110   3.743067   4.315262   3.764599
    32  H    2.165434   2.736308   2.511489   3.749435   3.078323
    33  H    2.154836   2.773978   3.121137   3.779794   2.560291
                   26         27         28         29         30
    26  C    0.000000
    27  H    1.097241   0.000000
    28  H    1.100037   1.790117   0.000000
    29  H    1.099374   1.782390   1.781097   0.000000
    30  C    2.506343   3.469805   2.743790   2.746768   0.000000
    31  H    2.734795   3.749651   2.511433   3.073214   1.099532
    32  H    3.464752   4.315525   3.742904   3.763928   1.099529
    33  H    2.776157   3.780776   3.126363   2.560858   1.098820
                   31         32         33
    31  H    0.000000
    32  H    1.786749   0.000000
    33  H    1.784878   1.784752   0.000000
 Stoichiometry    C10H18O5(1-)
 Framework group  C1[X(C10H18O5)]
 Deg. of freedom    93
 Full point group                 C1      NOp   1
 Largest Abelian subgroup         C1      NOp   1
 Largest concise Abelian subgroup C1      NOp   1
                         Standard orientation:                         
 ---------------------------------------------------------------------
 Center     Atomic      Atomic             Coordinates (Angstroms)
 Number     Number       Type             X           Y           Z
 ---------------------------------------------------------------------
      1          6           0        0.946165   -0.421340    0.191246
      2          8           0        0.697817    0.242539    1.157844
      3          8           0        0.064448   -1.297728   -0.371400
      4          6           0       -1.278760   -1.152890   -0.135995
      5          8           0       -1.947092   -2.101769    0.152241
      6          8           0        2.058199   -0.509941   -0.490861
      7          8           0       -1.639521    0.084049   -0.351537
      8          6           0       -3.004099    0.558103   -0.073555
      9          6           0       -2.907610    2.041895   -0.380610
     10          1           0       -2.159010    2.521030    0.266682
     11          1           0       -2.619220    2.201324   -1.429610
     12          1           0       -3.880626    2.522414   -0.208303
     13          6           0       -3.324023    0.320370    1.393726
     14          1           0       -3.398061   -0.750780    1.620939
     15          1           0       -2.547325    0.769101    2.030118
     16          1           0       -4.286044    0.794063    1.635364
     17          6           0       -3.979038   -0.138348   -1.008742
     18          1           0       -3.682372    0.015250   -2.056728
     19          1           0       -4.027703   -1.215189   -0.803645
     20          1           0       -4.981900    0.290252   -0.869508
     21          6           0        3.259676    0.243585   -0.100941
     22          6           0        2.970005    1.733844   -0.188852
     23          1           0        2.601341    1.994205   -1.192030
     24          1           0        2.227444    2.042396    0.557636
     25          1           0        3.899240    2.293125   -0.009088
     26          6           0        3.699012   -0.186783    1.289804
     27          1           0        2.965711    0.106683    2.051437
     28          1           0        3.840684   -1.277013    1.327332
     29          1           0        4.659534    0.291862    1.528381
     30          6           0        4.273025   -0.179410   -1.149911
     31          1           0        4.439117   -1.265654   -1.111734
     32          1           0        3.921566    0.087981   -2.156858
     33          1           0        5.230709    0.327591   -0.967711
 ---------------------------------------------------------------------
 Rotational constants (GHZ):           1.2969979           0.2885666           0.2711331
 Leave Link  202 at Tue Mar 16 20:27:27 2021, MaxMem=  6174015488 cpu:               0.2 elap:               0.0
 (Enter /opt/g16avx/l301.exe)
 Standard basis: def2SVP (5D, 7F)
 Ernie: Thresh=  0.10000D-02 Tol=  0.10000D-05 Strict=F.
 The combination of multiplicity 1 and   119 electrons is impossible.
 Error termination via Lnk1e in /opt/g16avx/l301.exe at Tue Mar 16 20:27:27 2021.
 Job cpu time:       0 days  0 hours  0 minutes 10.6 seconds.
 Elapsed time:       0 days  0 hours  0 minutes  0.6 seconds.
 File lengths (MBytes):  RWF=      6 Int=      0 D2E=      0 Chk=      1 Scr=      1
