 Entering Gaussian System, Link 0=/s/ls4/groups/g0130/bin/g16/g16
 Input=elim_TS_optTS_b.gjf
 Output=elim_TS_optTS_b.log
 Initial command:
 /s/ls4/groups/g0130/bin/g16/l1.exe "/dev/shm/scratch_aglubshev/Gau-18474.inp" -scrdir="/dev/shm/scratch_aglubshev/"
 Entering Link 1 = /s/ls4/groups/g0130/bin/g16/l1.exe PID=     18475.
  
 Copyright (c) 1988,1990,1992,1993,1995,1998,2003,2009,2016,
            Gaussian, Inc.  All Rights Reserved.
  
 This is part of the Gaussian(R) 16 program.  It is based on
 the Gaussian(R) 09 system (copyright 2009, Gaussian, Inc.),
 the Gaussian(R) 03 system (copyright 2003, Gaussian, Inc.),
 the Gaussian(R) 98 system (copyright 1998, Gaussian, Inc.),
 the Gaussian(R) 94 system (copyright 1995, Gaussian, Inc.),
 the Gaussian 92(TM) system (copyright 1992, Gaussian, Inc.),
 the Gaussian 90(TM) system (copyright 1990, Gaussian, Inc.),
 the Gaussian 88(TM) system (copyright 1988, Gaussian, Inc.),
 the Gaussian 86(TM) system (copyright 1986, Carnegie Mellon
 University), and the Gaussian 82(TM) system (copyright 1983,
 Carnegie Mellon University). Gaussian is a federally registered
 trademark of Gaussian, Inc.
  
 This software contains proprietary and confidential information,
 including trade secrets, belonging to Gaussian, Inc.
  
 This software is provided under written license and may be
 used, copied, transmitted, or stored only in accord with that
 written license.
  
 The following legend is applicable only to US Government
 contracts under FAR:
  
                    RESTRICTED RIGHTS LEGEND
  
 Use, reproduction and disclosure by the US Government is
 subject to restrictions as set forth in subparagraphs (a)
 and (c) of the Commercial Computer Software - Restricted
 Rights clause in FAR 52.227-19.
  
 Gaussian, Inc.
 340 Quinnipiac St., Bldg. 40, Wallingford CT 06492
  
  
 ---------------------------------------------------------------
 Warning -- This program may not be used in any manner that
 competes with the business of Gaussian, Inc. or will provide
 assistance to any competitor of Gaussian, Inc.  The licensee
 of this program is prohibited from giving any competitor of
 Gaussian, Inc. access to this program.  By using this program,
 the user acknowledges that Gaussian, Inc. is engaged in the
 business of creating and licensing software in the field of
 computational chemistry and represents and warrants to the
 licensee that it is not a competitor of Gaussian, Inc. and that
 it will not use this program in any manner prohibited above.
 ---------------------------------------------------------------
  

 Cite this work as:
 Gaussian 16, Revision A.03,
 M. J. Frisch, G. W. Trucks, H. B. Schlegel, G. E. Scuseria, 
 M. A. Robb, J. R. Cheeseman, G. Scalmani, V. Barone, 
 G. A. Petersson, H. Nakatsuji, X. Li, M. Caricato, A. V. Marenich, 
 J. Bloino, B. G. Janesko, R. Gomperts, B. Mennucci, H. P. Hratchian, 
 J. V. Ortiz, A. F. Izmaylov, J. L. Sonnenberg, D. Williams-Young, 
 F. Ding, F. Lipparini, F. Egidi, J. Goings, B. Peng, A. Petrone, 
 T. Henderson, D. Ranasinghe, V. G. Zakrzewski, J. Gao, N. Rega, 
 G. Zheng, W. Liang, M. Hada, M. Ehara, K. Toyota, R. Fukuda, 
 J. Hasegawa, M. Ishida, T. Nakajima, Y. Honda, O. Kitao, H. Nakai, 
 T. Vreven, K. Throssell, J. A. Montgomery, Jr., J. E. Peralta, 
 F. Ogliaro, M. J. Bearpark, J. J. Heyd, E. N. Brothers, K. N. Kudin, 
 V. N. Staroverov, T. A. Keith, R. Kobayashi, J. Normand, 
 K. Raghavachari, A. P. Rendell, J. C. Burant, S. S. Iyengar, 
 J. Tomasi, M. Cossi, J. M. Millam, M. Klene, C. Adamo, R. Cammi, 
 J. W. Ochterski, R. L. Martin, K. Morokuma, O. Farkas, 
 J. B. Foresman, and D. J. Fox, Gaussian, Inc., Wallingford CT, 2016.
 
 ******************************************
 Gaussian 16:  ES64L-G16RevA.03 25-Dec-2016
                21-Apr-2021 
 ******************************************
 %nprocshared=24
 Will use up to   24 processors via shared memory.
 %oldchk=elim_ts_pr_b.chk
 %chk=elim_ts_optts_b.chk
 Copying data from "elim_ts_pr_b.chk" to current chk file "elim_ts_optts_b.chk"
 IOpt=  2 FromEx=T IUOpen= 4 IOptOp= 5 NList=   0 IFRang= 0 IUIn= 4 IUOut= 2.
 ----------------------------------------------------------------------
 # opt=(TS,ReadFC,noeigentest,nofreeze) guess=read geom=allcheck freq P
 BE1PBE/def2svp empiricaldispersion=gd3bj
 ----------------------------------------------------------------------
 1/5=1,10=3,11=1,18=20,26=3,29=2007,38=1/1,3;
 2/9=110,12=2,40=1/2;
 3/5=43,7=101,11=2,14=-4,25=1,30=1,71=1,74=-13,116=-2,124=41/1,2,3;
 4/5=1/1;
 5/5=2,38=6/2;
 6/7=2,8=2,9=2,10=2,28=1/1;
 7//1,2,3,16;
 1/5=1,11=1,18=20,26=3/3(2);
 2/9=110/2;
 99//99;
 2/9=110/2;
 3/5=43,7=101,11=2,14=-2,25=1,30=1,71=1,74=-13,124=41/1,2,3;
 4/5=5,16=3,69=1/1;
 5/5=2,38=5/2;
 7//1,2,3,16;
 1/5=1,11=1,18=20,26=3/3(-5);
 2/9=110/2;
 6/7=2,8=2,9=2,10=2,19=2,28=1/1;
 99/9=1/99;
 Structure from the checkpoint file:  "elim_ts_optts_b.chk"
 ----
 Name
 ----
 Charge =  0 Multiplicity = 1
 Redundant internal coordinates found in file.  (old form).
 N,0,0.7289439228,-3.1342970639,1.2152985588
 C,0,1.5639893083,-2.5152140868,2.2328879172
 C,0,1.4977217589,-3.3209029503,-0.0065866363
 H,0,0.9950320092,-2.4499074967,3.1755824681
 H,0,2.4377482873,-3.1602869313,2.4178560201
 C,0,2.0082233311,-1.1178346596,1.7882692802
 H,0,0.8783967211,-3.8588397897,-0.7440509306
 H,0,2.3709582437,-3.9540159425,0.2181228462
 C,0,1.9337870458,-1.9657890222,-0.5793664056
 C,0,0.7573830886,-0.2914987363,1.4993560326
 C,0,2.8177706454,-1.2269773224,0.46628758
 C,0,0.6680104376,-1.1451616666,-0.8135001316
 H,0,0.1317588571,-0.167989956,2.3923369008
 H,0,1.0067361185,0.7011561808,1.1129356259
 N,0,-0.0883134298,-0.9674110373,0.4643917327
 H,0,3.6984889292,-1.863424782,0.669758562
 H,0,-0.0136002102,-1.6457768685,-1.5129276686
 H,0,0.8895640257,-0.1379713478,-1.1963737508
 N,0,3.29419463,0.0679291328,0.0564717985
 H,0,2.5995475665,0.6454537106,-0.4263279317
 C,0,2.8121736263,-0.4382299698,2.8816224004
 H,0,3.1229674274,0.5643690046,2.5588989501
 H,0,2.2254165993,-0.3469123507,3.8096717082
 H,0,3.7203046016,-1.0185038713,3.1111246967
 C,0,2.6430299708,-2.147979007,-1.9104723173
 H,0,2.8797280147,-1.1785636003,-2.3717228665
 H,0,3.5823098904,-2.708630869,-1.7833257058
 H,0,2.009721282,-2.7069904412,-2.6181137613
 C,0,-0.4394223114,-2.3709507898,0.9870930538
 H,0,-1.00478427,-2.2138128584,1.9142054829
 H,0,-1.0781131521,-2.8221693853,0.2160328705
 C,0,-1.4178994585,-0.253652712,0.1655786928
 O,0,-1.9583544432,-0.4943076986,-0.8772883529
 O,0,-0.6661958912,1.5876123084,-0.0458090798
 C,0,0.1609574195,2.2055624061,-0.7695882128
 O,0,1.2419690748,1.7830015142,-1.2120024635
 O,0,-1.9603990985,0.0131842125,1.3369147086
 O,0,-0.237287872,3.473924289,-1.0318120273
 C,0,0.5938746337,4.4075802918,-1.7518386273
 C,0,-0.2453301638,5.6783596414,-1.755527474
 H,0,-1.2118673122,5.4999225179,-2.2505755099
 H,0,-0.4461244411,6.0093621532,-0.7253833064
 H,0,0.2763125904,6.4879388726,-2.2875638395
 C,0,0.8305997475,3.9281507638,-3.179652065
 H,0,1.4346025207,3.0126041586,-3.1836525191
 H,0,-0.1304081901,3.7212204298,-3.6760573316
 H,0,1.3548102091,4.7051601148,-3.757373238
 C,0,1.9066407742,4.6436710365,-1.0130936527
 H,0,1.7092985999,4.9299250687,0.0319611912
 H,0,2.5331988286,3.7436273133,-1.018454023
 H,0,2.4660687034,5.4626319566,-1.4903446521
 C,0,-3.3524075917,0.4545608031,1.4516616407
 C,0,-3.6312531439,1.6352964614,0.535823258
 H,0,-2.8857679887,2.4259532343,0.6866326646
 H,0,-3.5947546263,1.3401915396,-0.5202241549
 H,0,-4.6354201441,2.0263813244,0.7591740659
 C,0,-4.2597418127,-0.7293559698,1.1497975685
 H,0,-4.1411374745,-1.0587844705,0.1090114726
 H,0,-4.0386389981,-1.5743951378,1.8202137134
 H,0,-5.3101726793,-0.4402705913,1.3036432616
 C,0,-3.4513788664,0.86605689,2.910295807
 H,0,-3.1930043433,0.0257787796,3.5725743003
 H,0,-2.766011873,1.7002149881,3.1202877627
 H,0,-4.476062423,1.1886328518,3.1447499076
 C,0,4.6079893299,0.189914532,-0.523222972
 H,0,5.3341860578,-0.3030377084,0.1495479194
 H,0,4.725592897,-0.3036551549,-1.5103256876
 C,0,4.9830888878,1.6430546952,-0.6785838859
 C,0,5.2478818021,2.1888015424,-1.9367643475
 C,0,5.0316005675,2.4845964292,0.4398662123
 C,0,5.5698561358,3.5395924887,-2.0782678694
 C,0,5.3536987462,3.8316545653,0.3043634492
 C,0,5.6253912151,4.3642275048,-0.9575271489
 H,0,5.1935468047,1.5463352978,-2.8204142938
 H,0,4.8068806135,2.0709885492,1.4262450901
 H,0,5.7693935189,3.9495296338,-3.0716904065
 H,0,5.3892408527,4.4743649897,1.1878876351
 H,0,5.8727876968,5.4233510342,-1.0652404043
 Recover connectivity data from disk.
 Any frozen variables have been unfrozen.

 GradGradGradGradGradGradGradGradGradGradGradGradGradGradGradGradGradGrad
 Berny optimization.
 Initialization pass.
 Force constant matrix read from checkpoint file:
 "elim_ts_optts_b.chk"
                           ----------------------------
                           !    Initial Parameters    !
                           ! (Angstroms and Degrees)  !
 --------------------------                            --------------------------
 ! Name  Definition              Value          Derivative Info.                !
 --------------------------------------------------------------------------------
 ! R1    R(1,2)                  1.4547         D2E/DX2 =    0.2484             !
 ! R2    R(1,3)                  1.4556         D2E/DX2 =    0.2447             !
 ! R3    R(1,29)                 1.4142         D2E/DX2 =    0.2765             !
 ! R4    R(2,4)                  1.103          D2E/DX2 =    0.3359             !
 ! R5    R(2,5)                  1.1017         D2E/DX2 =    0.3393             !
 ! R6    R(2,6)                  1.5322         D2E/DX2 =    0.2037             !
 ! R7    R(3,7)                  1.1031         D2E/DX2 =    0.336              !
 ! R8    R(3,8)                  1.1018         D2E/DX2 =    0.3393             !
 ! R9    R(3,9)                  1.5345         D2E/DX2 =    0.2013             !
 ! R10   R(6,10)                 1.5267         D2E/DX2 =    0.213              !
 ! R11   R(6,11)                 1.554          D2E/DX2 =    0.1921             !
 ! R12   R(6,21)                 1.5178         D2E/DX2 =    0.3061             !
 ! R13   R(9,11)                 1.5558         D2E/DX2 =    0.1871             !
 ! R14   R(9,12)                 1.5266         D2E/DX2 =    0.2143             !
 ! R15   R(9,25)                 1.5192         D2E/DX2 =    0.3034             !
 ! R16   R(10,13)                1.0973         D2E/DX2 =    0.3513             !
 ! R17   R(10,14)                1.094          D2E/DX2 =    0.3165             !
 ! R18   R(10,15)                1.4977         D2E/DX2 =    0.18               !
 ! R19   R(11,16)                1.1055         D2E/DX2 =    0.3284             !
 ! R20   R(11,19)                1.4393         D2E/DX2 =    0.3747             !
 ! R21   R(12,15)                1.4955         D2E/DX2 =    0.1811             !
 ! R22   R(12,17)                1.0975         D2E/DX2 =    0.3504             !
 ! R23   R(12,18)                1.1001         D2E/DX2 =    0.3007             !
 ! R24   R(14,36)                2.5751         D2E/DX2 =    0.0325             !
 ! R25   R(15,29)                1.5383         D2E/DX2 =    0.1582             !
 ! R26   R(15,32)                1.5384         D2E/DX2 =    0.2248             !
 ! R27   R(18,36)                1.9531         D2E/DX2 =    0.0218             !
 ! R28   R(19,20)                1.0243         D2E/DX2 =    0.4229             !
 ! R29   R(19,65)                1.4412         D2E/DX2 =    0.372              !
 ! R30   R(21,22)                1.0982         D2E/DX2 =    0.352              !
 ! R31   R(21,23)                1.1018         D2E/DX2 =    0.3422             !
 ! R32   R(21,24)                1.1019         D2E/DX2 =    0.3422             !
 ! R33   R(25,26)                1.0993         D2E/DX2 =    0.349              !
 ! R34   R(25,27)                1.1012         D2E/DX2 =    0.3436             !
 ! R35   R(25,28)                1.102          D2E/DX2 =    0.3416             !
 ! R36   R(29,30)                1.0972         D2E/DX2 =    0.3522             !
 ! R37   R(29,31)                1.0982         D2E/DX2 =    0.3489             !
 ! R38   R(32,33)                1.199          D2E/DX2 =    0.8899             !
 ! R39   R(32,34)                2.0            D2E/DX2 =    0.0475             !
 ! R40   R(32,37)                1.3182         D2E/DX2 =    0.4729             !
 ! R41   R(34,35)                1.2609         D2E/DX2 =    0.6022             !
 ! R42   R(35,36)                1.2421         D2E/DX2 =    0.7406             !
 ! R43   R(35,38)                1.355          D2E/DX2 =    0.4076             !
 ! R44   R(37,52)                1.4648         D2E/DX2 =    0.2847             !
 ! R45   R(38,39)                1.4426         D2E/DX2 =    0.3172             !
 ! R46   R(39,40)                1.5229         D2E/DX2 =    0.3016             !
 ! R47   R(39,44)                1.5246         D2E/DX2 =    0.2952             !
 ! R48   R(39,48)                1.5247         D2E/DX2 =    0.2974             !
 ! R49   R(40,41)                1.1005         D2E/DX2 =    0.3461             !
 ! R50   R(40,42)                1.1005         D2E/DX2 =    0.3462             !
 ! R51   R(40,43)                1.1003         D2E/DX2 =    0.347              !
 ! R52   R(44,45)                1.0968         D2E/DX2 =    0.3559             !
 ! R53   R(44,46)                1.1013         D2E/DX2 =    0.344              !
 ! R54   R(44,47)                1.101          D2E/DX2 =    0.3444             !
 ! R55   R(48,49)                1.1014         D2E/DX2 =    0.3435             !
 ! R56   R(48,50)                1.0967         D2E/DX2 =    0.3556             !
 ! R57   R(48,51)                1.1006         D2E/DX2 =    0.3452             !
 ! R58   R(52,53)                1.5201         D2E/DX2 =    0.3013             !
 ! R59   R(52,57)                1.5219         D2E/DX2 =    0.2986             !
 ! R60   R(52,61)                1.5188         D2E/DX2 =    0.3071             !
 ! R61   R(53,54)                1.0971         D2E/DX2 =    0.3554             !
 ! R62   R(53,55)                1.0971         D2E/DX2 =    0.3551             !
 ! R63   R(53,56)                1.1005         D2E/DX2 =    0.3458             !
 ! R64   R(57,58)                1.0981         D2E/DX2 =    0.353              !
 ! R65   R(57,59)                1.1011         D2E/DX2 =    0.3445             !
 ! R66   R(57,60)                1.1003         D2E/DX2 =    0.3473             !
 ! R67   R(61,62)                1.1007         D2E/DX2 =    0.3457             !
 ! R68   R(61,63)                1.0998         D2E/DX2 =    0.3483             !
 ! R69   R(61,64)                1.0995         D2E/DX2 =    0.3494             !
 ! R70   R(65,66)                1.1059         D2E/DX2 =    0.3277             !
 ! R71   R(65,67)                1.1099         D2E/DX2 =    0.3162             !
 ! R72   R(65,68)                1.5088         D2E/DX2 =    0.3199             !
 ! R73   R(68,69)                1.3968         D2E/DX2 =    0.4157             !
 ! R74   R(68,70)                1.4005         D2E/DX2 =    0.4064             !
 ! R75   R(69,71)                1.3958         D2E/DX2 =    0.416              !
 ! R76   R(69,74)                1.0939         D2E/DX2 =    0.3607             !
 ! R77   R(70,72)                1.3916         D2E/DX2 =    0.4252             !
 ! R78   R(70,75)                1.0929         D2E/DX2 =    0.3631             !
 ! R79   R(71,73)                1.3925         D2E/DX2 =    0.4242             !
 ! R80   R(71,76)                1.093          D2E/DX2 =    0.3632             !
 ! R81   R(72,73)                1.3964         D2E/DX2 =    0.4158             !
 ! R82   R(72,77)                1.0931         D2E/DX2 =    0.3629             !
 ! R83   R(73,78)                1.093          D2E/DX2 =    0.3635             !
 ! A1    A(2,1,3)              109.7907         D2E/DX2 =    0.0235             !
 ! A2    A(2,1,29)             110.9425         D2E/DX2 =    0.0246             !
 ! A3    A(3,1,29)             111.7209         D2E/DX2 =    0.025              !
 ! A4    A(1,2,4)              109.0838         D2E/DX2 =    0.0341             !
 ! A5    A(1,2,5)              108.8764         D2E/DX2 =    0.0343             !
 ! A6    A(1,2,6)              110.5836         D2E/DX2 =    0.0322             !
 ! A7    A(4,2,5)              107.4737         D2E/DX2 =    0.0168             !
 ! A8    A(4,2,6)              110.0936         D2E/DX2 =    0.036              !
 ! A9    A(5,2,6)              110.6567         D2E/DX2 =    0.0362             !
 ! A10   A(1,3,7)              109.0981         D2E/DX2 =    0.0339             !
 ! A11   A(1,3,8)              108.727          D2E/DX2 =    0.0341             !
 ! A12   A(1,3,9)              110.5004         D2E/DX2 =    0.032              !
 ! A13   A(7,3,8)              107.5248         D2E/DX2 =    0.0168             !
 ! A14   A(7,3,9)              109.9176         D2E/DX2 =    0.0359             !
 ! A15   A(8,3,9)              111.0002         D2E/DX2 =    0.0359             !
 ! A16   A(2,6,10)             108.1189         D2E/DX2 =    0.0178             !
 ! A17   A(2,6,11)             109.5019         D2E/DX2 =    0.0174             !
 ! A18   A(2,6,21)             110.6646         D2E/DX2 =    0.023              !
 ! A19   A(10,6,11)            107.6882         D2E/DX2 =    0.0162             !
 ! A20   A(10,6,21)            109.144          D2E/DX2 =    0.0202             !
 ! A21   A(11,6,21)            111.6122         D2E/DX2 =    0.0237             !
 ! A22   A(3,9,11)             109.2658         D2E/DX2 =    0.0176             !
 ! A23   A(3,9,12)             107.2385         D2E/DX2 =    0.0179             !
 ! A24   A(3,9,25)             110.721          D2E/DX2 =    0.0226             !
 ! A25   A(11,9,12)            108.5973         D2E/DX2 =    0.0167             !
 ! A26   A(11,9,25)            112.3682         D2E/DX2 =    0.0232             !
 ! A27   A(12,9,25)            108.4921         D2E/DX2 =    0.0203             !
 ! A28   A(6,10,13)            111.9649         D2E/DX2 =    0.0201             !
 ! A29   A(6,10,14)            111.7899         D2E/DX2 =    0.0307             !
 ! A30   A(6,10,15)            110.4336         D2E/DX2 =    0.0254             !
 ! A31   A(13,10,14)           108.3769         D2E/DX2 =    0.014              !
 ! A32   A(13,10,15)           106.9305         D2E/DX2 =    0.0225             !
 ! A33   A(14,10,15)           107.1035         D2E/DX2 =    0.0199             !
 ! A34   A(6,11,9)             108.0052         D2E/DX2 =    0.0263             !
 ! A35   A(6,11,16)            107.3904         D2E/DX2 =    0.0176             !
 ! A36   A(6,11,19)            110.5767         D2E/DX2 =    0.0651             !
 ! A37   A(9,11,16)            107.6354         D2E/DX2 =    0.0178             !
 ! A38   A(9,11,19)            115.0821         D2E/DX2 =    0.0769             !
 ! A39   A(16,11,19)           107.8571         D2E/DX2 =    0.0253             !
 ! A40   A(9,12,15)            110.6197         D2E/DX2 =    0.0246             !
 ! A41   A(9,12,17)            111.5621         D2E/DX2 =    0.0195             !
 ! A42   A(9,12,18)            112.245          D2E/DX2 =    0.0304             !
 ! A43   A(15,12,17)           106.5404         D2E/DX2 =    0.0228             !
 ! A44   A(15,12,18)           106.8838         D2E/DX2 =    0.0214             !
 ! A45   A(17,12,18)           108.7187         D2E/DX2 =    0.0137             !
 ! A46   A(10,14,36)           136.1306         D2E/DX2 =    0.0283             !
 ! A47   A(10,15,12)           111.0104         D2E/DX2 =    0.0172             !
 ! A48   A(10,15,29)           107.808          D2E/DX2 =    0.0185             !
 ! A49   A(10,15,32)           114.3846         D2E/DX2 =    0.0311             !
 ! A50   A(12,15,29)           107.297          D2E/DX2 =    0.0175             !
 ! A51   A(12,15,32)           109.042          D2E/DX2 =    0.0339             !
 ! A52   A(29,15,32)           106.9812         D2E/DX2 =    0.0278             !
 ! A53   A(12,18,36)           159.9935         D2E/DX2 =    0.0315             !
 ! A54   A(11,19,20)           114.644          D2E/DX2 =    0.0979             !
 ! A55   A(11,19,65)           119.4998         D2E/DX2 =    0.1863             !
 ! A56   A(20,19,65)           112.3904         D2E/DX2 =    0.0836             !
 ! A57   A(6,21,22)            110.3047         D2E/DX2 =    0.0956             !
 ! A58   A(6,21,23)            111.2111         D2E/DX2 =    0.102              !
 ! A59   A(6,21,24)            110.5361         D2E/DX2 =    0.1015             !
 ! A60   A(22,21,23)           108.8197         D2E/DX2 =    0.0478             !
 ! A61   A(22,21,24)           107.9847         D2E/DX2 =    0.0484             !
 ! A62   A(23,21,24)           107.8862         D2E/DX2 =    0.0493             !
 ! A63   A(9,25,26)            111.2466         D2E/DX2 =    0.0986             !
 ! A64   A(9,25,27)            110.9821         D2E/DX2 =    0.0988             !
 ! A65   A(9,25,28)            110.8045         D2E/DX2 =    0.102              !
 ! A66   A(26,25,27)           108.2847         D2E/DX2 =    0.0495             !
 ! A67   A(26,25,28)           107.5561         D2E/DX2 =    0.0493             !
 ! A68   A(27,25,28)           107.8221         D2E/DX2 =    0.049              !
 ! A69   A(1,29,15)            111.0238         D2E/DX2 =    0.0351             !
 ! A70   A(1,29,30)            111.5101         D2E/DX2 =    0.0332             !
 ! A71   A(1,29,31)            111.8397         D2E/DX2 =    0.0332             !
 ! A72   A(15,29,30)           105.9055         D2E/DX2 =    0.0415             !
 ! A73   A(15,29,31)           105.6073         D2E/DX2 =    0.0421             !
 ! A74   A(30,29,31)           110.6364         D2E/DX2 =    0.0163             !
 ! A75   A(15,32,33)           117.7367         D2E/DX2 =    0.192              !
 ! A76   A(15,32,37)           106.0826         D2E/DX2 =    0.2524             !
 ! A77   A(33,32,37)           128.9046         D2E/DX2 =    0.1791             !
 ! A78   A(34,35,36)           127.4909         D2E/DX2 =    0.2375             !
 ! A79   A(34,35,38)           112.1492         D2E/DX2 =    0.2315             !
 ! A80   A(36,35,38)           120.3504         D2E/DX2 =    0.2526             !
 ! A81   A(14,36,18)            64.0926         D2E/DX2 =    0.0139             !
 ! A82   A(14,36,35)            75.0394         D2E/DX2 =    0.1211             !
 ! A83   A(18,36,35)           100.0622         D2E/DX2 =    0.0372             !
 ! A84   A(32,37,52)           121.4472         D2E/DX2 =    0.348              !
 ! A85   A(35,38,39)           122.2137         D2E/DX2 =    0.4421             !
 ! A86   A(38,39,40)           102.9312         D2E/DX2 =    0.0358             !
 ! A87   A(38,39,44)           110.6935         D2E/DX2 =    0.037              !
 ! A88   A(38,39,48)           110.76           D2E/DX2 =    0.0391             !
 ! A89   A(40,39,44)           110.224          D2E/DX2 =    0.052              !
 ! A90   A(40,39,48)           110.2685         D2E/DX2 =    0.0521             !
 ! A91   A(44,39,48)           111.6381         D2E/DX2 =    0.0462             !
 ! A92   A(39,40,41)           110.4734         D2E/DX2 =    0.1005             !
 ! A93   A(39,40,42)           110.4424         D2E/DX2 =    0.1005             !
 ! A94   A(39,40,43)           110.7263         D2E/DX2 =    0.0993             !
 ! A95   A(41,40,42)           108.0354         D2E/DX2 =    0.0488             !
 ! A96   A(41,40,43)           108.5526         D2E/DX2 =    0.0483             !
 ! A97   A(42,40,43)           108.532          D2E/DX2 =    0.0483             !
 ! A98   A(39,44,45)           110.5726         D2E/DX2 =    0.0991             !
 ! A99   A(39,44,46)           110.2262         D2E/DX2 =    0.1016             !
 ! A100  A(39,44,47)           110.0836         D2E/DX2 =    0.0999             !
 ! A101  A(45,44,46)           108.7872         D2E/DX2 =    0.0489             !
 ! A102  A(45,44,47)           108.9635         D2E/DX2 =    0.0476             !
 ! A103  A(46,44,47)           108.153          D2E/DX2 =    0.0474             !
 ! A104  A(39,48,49)           110.2249         D2E/DX2 =    0.1                !
 ! A105  A(39,48,50)           111.251          D2E/DX2 =    0.1015             !
 ! A106  A(39,48,51)           110.0436         D2E/DX2 =    0.0992             !
 ! A107  A(49,48,50)           108.6819         D2E/DX2 =    0.0496             !
 ! A108  A(49,48,51)           108.0061         D2E/DX2 =    0.0472             !
 ! A109  A(50,48,51)           108.5514         D2E/DX2 =    0.0481             !
 ! A110  A(37,52,53)           111.1727         D2E/DX2 =    0.0419             !
 ! A111  A(37,52,57)           108.4589         D2E/DX2 =    0.0373             !
 ! A112  A(37,52,61)           102.6384         D2E/DX2 =    0.0355             !
 ! A113  A(53,52,57)           112.049          D2E/DX2 =    0.0486             !
 ! A114  A(53,52,61)           110.8684         D2E/DX2 =    0.0521             !
 ! A115  A(57,52,61)           111.2488         D2E/DX2 =    0.0515             !
 ! A116  A(52,53,54)           110.6295         D2E/DX2 =    0.1054             !
 ! A117  A(52,53,55)           111.4017         D2E/DX2 =    0.1054             !
 ! A118  A(52,53,56)           108.7313         D2E/DX2 =    0.1006             !
 ! A119  A(54,53,55)           107.6716         D2E/DX2 =    0.0506             !
 ! A120  A(54,53,56)           109.6337         D2E/DX2 =    0.0474             !
 ! A121  A(55,53,56)           108.741          D2E/DX2 =    0.0483             !
 ! A122  A(52,57,58)           110.9153         D2E/DX2 =    0.1009             !
 ! A123  A(52,57,59)           110.8881         D2E/DX2 =    0.1014             !
 ! A124  A(52,57,60)           109.6977         D2E/DX2 =    0.0991             !
 ! A125  A(58,57,59)           108.9751         D2E/DX2 =    0.0501             !
 ! A126  A(58,57,60)           108.3281         D2E/DX2 =    0.0478             !
 ! A127  A(59,57,60)           107.951          D2E/DX2 =    0.0477             !
 ! A128  A(52,61,62)           110.8388         D2E/DX2 =    0.1022             !
 ! A129  A(52,61,63)           110.3802         D2E/DX2 =    0.1014             !
 ! A130  A(52,61,64)           110.1815         D2E/DX2 =    0.0998             !
 ! A131  A(62,61,63)           108.5329         D2E/DX2 =    0.0496             !
 ! A132  A(62,61,64)           108.3265         D2E/DX2 =    0.0485             !
 ! A133  A(63,61,64)           108.5124         D2E/DX2 =    0.0479             !
 ! A134  A(19,65,66)           108.4328         D2E/DX2 =    0.0633             !
 ! A135  A(19,65,67)           114.6263         D2E/DX2 =    0.0704             !
 ! A136  A(19,65,68)           110.4613         D2E/DX2 =    0.1944             !
 ! A137  A(66,65,67)           105.8577         D2E/DX2 =    0.0249             !
 ! A138  A(66,65,68)           109.19           D2E/DX2 =    0.0626             !
 ! A139  A(67,65,68)           108.0823         D2E/DX2 =    0.0701             !
 ! A140  A(65,68,69)           121.0771         D2E/DX2 =    0.128              !
 ! A141  A(65,68,70)           120.3374         D2E/DX2 =    0.127              !
 ! A142  A(69,68,70)           118.5557         D2E/DX2 =    0.086              !
 ! A143  A(68,69,71)           120.8746         D2E/DX2 =    0.0836             !
 ! A144  A(68,69,74)           119.2595         D2E/DX2 =    0.0805             !
 ! A145  A(71,69,74)           119.8643         D2E/DX2 =    0.0807             !
 ! A146  A(68,70,72)           120.7893         D2E/DX2 =    0.0832             !
 ! A147  A(68,70,75)           119.0922         D2E/DX2 =    0.0798             !
 ! A148  A(72,70,75)           120.1176         D2E/DX2 =    0.0798             !
 ! A149  A(69,71,73)           120.0453         D2E/DX2 =    0.082              !
 ! A150  A(69,71,76)           119.814          D2E/DX2 =    0.0802             !
 ! A151  A(73,71,76)           120.1385         D2E/DX2 =    0.0801             !
 ! A152  A(70,72,73)           120.1462         D2E/DX2 =    0.0821             !
 ! A153  A(70,72,77)           119.8638         D2E/DX2 =    0.0803             !
 ! A154  A(73,72,77)           119.9894         D2E/DX2 =    0.0802             !
 ! A155  A(71,73,72)           119.5838         D2E/DX2 =    0.082              !
 ! A156  A(71,73,78)           120.2359         D2E/DX2 =    0.0798             !
 ! A157  A(72,73,78)           120.1788         D2E/DX2 =    0.0798             !
 ! D1    D(3,1,2,4)           -175.7065         D2E/DX2 =    0.02               !
 ! D2    D(3,1,2,5)            -58.7007         D2E/DX2 =    0.0194             !
 ! D3    D(3,1,2,6)             63.0785         D2E/DX2 =    0.0158             !
 ! D4    D(29,1,2,4)            60.317          D2E/DX2 =    0.0195             !
 ! D5    D(29,1,2,5)           177.3228         D2E/DX2 =    0.0197             !
 ! D6    D(29,1,2,6)           -60.898          D2E/DX2 =    0.0159             !
 ! D7    D(2,1,3,7)            175.7775         D2E/DX2 =    0.02               !
 ! D8    D(2,1,3,8)             58.7866         D2E/DX2 =    0.0195             !
 ! D9    D(2,1,3,9)            -63.2689         D2E/DX2 =    0.0157             !
 ! D10   D(29,1,3,7)           -60.701          D2E/DX2 =    0.0194             !
 ! D11   D(29,1,3,8)          -177.6919         D2E/DX2 =    0.0196             !
 ! D12   D(29,1,3,9)            60.2526         D2E/DX2 =    0.0153             !
 ! D13   D(2,1,29,15)           61.9564         D2E/DX2 =    0.0163             !
 ! D14   D(2,1,29,30)          -55.8864         D2E/DX2 =    0.0222             !
 ! D15   D(2,1,29,31)          179.6376         D2E/DX2 =    0.0228             !
 ! D16   D(3,1,29,15)          -60.9116         D2E/DX2 =    0.0161             !
 ! D17   D(3,1,29,30)         -178.7544         D2E/DX2 =    0.0226             !
 ! D18   D(3,1,29,31)           56.7696         D2E/DX2 =    0.0223             !
 ! D19   D(1,2,6,10)            57.2229         D2E/DX2 =    0.0147             !
 ! D20   D(1,2,6,11)           -59.8441         D2E/DX2 =    0.0148             !
 ! D21   D(1,2,6,21)           176.7077         D2E/DX2 =    0.0173             !
 ! D22   D(4,2,6,10)           -63.3921         D2E/DX2 =    0.0159             !
 ! D23   D(4,2,6,11)           179.5409         D2E/DX2 =    0.0166             !
 ! D24   D(4,2,6,21)            56.0927         D2E/DX2 =    0.0148             !
 ! D25   D(5,2,6,10)           177.9478         D2E/DX2 =    0.0158             !
 ! D26   D(5,2,6,11)            60.8808         D2E/DX2 =    0.0163             !
 ! D27   D(5,2,6,21)           -62.5673         D2E/DX2 =    0.0149             !
 ! D28   D(1,3,9,11)            60.1191         D2E/DX2 =    0.0148             !
 ! D29   D(1,3,9,12)           -57.4085         D2E/DX2 =    0.0147             !
 ! D30   D(1,3,9,25)          -175.601          D2E/DX2 =    0.0177             !
 ! D31   D(7,3,9,11)          -179.4161         D2E/DX2 =    0.0162             !
 ! D32   D(7,3,9,12)            63.0563         D2E/DX2 =    0.016              !
 ! D33   D(7,3,9,25)           -55.1362         D2E/DX2 =    0.015              !
 ! D34   D(8,3,9,11)           -60.5899         D2E/DX2 =    0.0159             !
 ! D35   D(8,3,9,12)          -178.1175         D2E/DX2 =    0.0158             !
 ! D36   D(8,3,9,25)            63.6899         D2E/DX2 =    0.015              !
 ! D37   D(2,6,10,13)           61.9031         D2E/DX2 =    0.0149             !
 ! D38   D(2,6,10,14)         -176.2716         D2E/DX2 =    0.0162             !
 ! D39   D(2,6,10,15)          -57.1322         D2E/DX2 =    0.015              !
 ! D40   D(11,6,10,13)        -179.8651         D2E/DX2 =    0.0146             !
 ! D41   D(11,6,10,14)         -58.0398         D2E/DX2 =    0.0148             !
 ! D42   D(11,6,10,15)          61.0996         D2E/DX2 =    0.0154             !
 ! D43   D(21,6,10,13)         -58.5369         D2E/DX2 =    0.0138             !
 ! D44   D(21,6,10,14)          63.2884         D2E/DX2 =    0.0151             !
 ! D45   D(21,6,10,15)        -177.5722         D2E/DX2 =    0.0169             !
 ! D46   D(2,6,11,9)            55.6394         D2E/DX2 =    0.0136             !
 ! D47   D(2,6,11,16)          -60.1849         D2E/DX2 =    0.0149             !
 ! D48   D(2,6,11,19)         -177.6241         D2E/DX2 =    0.0419             !
 ! D49   D(10,6,11,9)          -61.6983         D2E/DX2 =    0.013              !
 ! D50   D(10,6,11,16)        -177.5226         D2E/DX2 =    0.0148             !
 ! D51   D(10,6,11,19)          65.0382         D2E/DX2 =    0.0408             !
 ! D52   D(21,6,11,9)          178.527          D2E/DX2 =    0.0146             !
 ! D53   D(21,6,11,16)          62.7027         D2E/DX2 =    0.0123             !
 ! D54   D(21,6,11,19)         -54.7365         D2E/DX2 =    0.0329             !
 ! D55   D(2,6,21,22)         -179.7067         D2E/DX2 =    0.0109             !
 ! D56   D(2,6,21,23)          -58.8722         D2E/DX2 =    0.0108             !
 ! D57   D(2,6,21,24)           60.9418         D2E/DX2 =    0.0106             !
 ! D58   D(10,6,21,22)         -60.8408         D2E/DX2 =    0.0112             !
 ! D59   D(10,6,21,23)          59.9936         D2E/DX2 =    0.011              !
 ! D60   D(10,6,21,24)         179.8076         D2E/DX2 =    0.0109             !
 ! D61   D(11,6,21,22)          58.0716         D2E/DX2 =    0.0108             !
 ! D62   D(11,6,21,23)         178.9061         D2E/DX2 =    0.0106             !
 ! D63   D(11,6,21,24)         -61.2799         D2E/DX2 =    0.0106             !
 ! D64   D(3,9,11,6)           -55.728          D2E/DX2 =    0.0138             !
 ! D65   D(3,9,11,16)           59.9359         D2E/DX2 =    0.0144             !
 ! D66   D(3,9,11,19)         -179.7951         D2E/DX2 =    0.0279             !
 ! D67   D(12,9,11,6)           60.9409         D2E/DX2 =    0.0136             !
 ! D68   D(12,9,11,16)         176.6049         D2E/DX2 =    0.0147             !
 ! D69   D(12,9,11,19)         -63.1261         D2E/DX2 =    0.0278             !
 ! D70   D(25,9,11,6)         -179.0361         D2E/DX2 =    0.0145             !
 ! D71   D(25,9,11,16)         -63.3722         D2E/DX2 =    0.0119             !
 ! D72   D(25,9,11,19)          56.8968         D2E/DX2 =    0.0227             !
 ! D73   D(3,9,12,15)           58.8741         D2E/DX2 =    0.0142             !
 ! D74   D(3,9,12,17)          -59.5342         D2E/DX2 =    0.0154             !
 ! D75   D(3,9,12,18)          178.1596         D2E/DX2 =    0.016              !
 ! D76   D(11,9,12,15)         -59.0894         D2E/DX2 =    0.0141             !
 ! D77   D(11,9,12,17)        -177.4977         D2E/DX2 =    0.015              !
 ! D78   D(11,9,12,18)          60.196          D2E/DX2 =    0.0136             !
 ! D79   D(25,9,12,15)         178.5044         D2E/DX2 =    0.0161             !
 ! D80   D(25,9,12,17)          60.096          D2E/DX2 =    0.014              !
 ! D81   D(25,9,12,18)         -62.2102         D2E/DX2 =    0.0145             !
 ! D82   D(3,9,25,26)          174.9365         D2E/DX2 =    0.0115             !
 ! D83   D(3,9,25,27)          -64.424          D2E/DX2 =    0.0111             !
 ! D84   D(3,9,25,28)           55.3365         D2E/DX2 =    0.0111             !
 ! D85   D(11,9,25,26)         -62.5739         D2E/DX2 =    0.0112             !
 ! D86   D(11,9,25,27)          58.0656         D2E/DX2 =    0.0109             !
 ! D87   D(11,9,25,28)         177.8261         D2E/DX2 =    0.0107             !
 ! D88   D(12,9,25,26)          57.51           D2E/DX2 =    0.0116             !
 ! D89   D(12,9,25,27)         178.1495         D2E/DX2 =    0.0115             !
 ! D90   D(12,9,25,28)         -62.09           D2E/DX2 =    0.0114             !
 ! D91   D(6,10,14,36)          94.9738         D2E/DX2 =    0.0178             !
 ! D92   D(13,10,14,36)       -141.1589         D2E/DX2 =    0.0195             !
 ! D93   D(15,10,14,36)        -26.117          D2E/DX2 =    0.0147             !
 ! D94   D(6,10,15,12)         -59.64           D2E/DX2 =    0.0139             !
 ! D95   D(6,10,15,29)          57.6117         D2E/DX2 =    0.0155             !
 ! D96   D(6,10,15,32)         176.4544         D2E/DX2 =    0.0267             !
 ! D97   D(13,10,15,12)        178.3108         D2E/DX2 =    0.0128             !
 ! D98   D(13,10,15,29)        -64.4376         D2E/DX2 =    0.0145             !
 ! D99   D(13,10,15,32)         54.4051         D2E/DX2 =    0.02               !
 ! D100  D(14,10,15,12)         62.3047         D2E/DX2 =    0.0138             !
 ! D101  D(14,10,15,29)        179.5564         D2E/DX2 =    0.0202             !
 ! D102  D(14,10,15,32)        -61.6009         D2E/DX2 =    0.0311             !
 ! D103  D(6,11,19,20)         -80.635          D2E/DX2 =    0.0113             !
 ! D104  D(6,11,19,65)         141.5427         D2E/DX2 =    0.0144             !
 ! D105  D(9,11,19,20)          42.066          D2E/DX2 =    0.0109             !
 ! D106  D(9,11,19,65)         -95.7563         D2E/DX2 =    0.0143             !
 ! D107  D(16,11,19,20)        162.2131         D2E/DX2 =    0.0147             !
 ! D108  D(16,11,19,65)         24.3908         D2E/DX2 =    0.0101             !
 ! D109  D(9,12,15,10)          58.3982         D2E/DX2 =    0.013              !
 ! D110  D(9,12,15,29)         -59.1652         D2E/DX2 =    0.0146             !
 ! D111  D(9,12,15,32)        -174.7013         D2E/DX2 =    0.0231             !
 ! D112  D(17,12,15,10)        179.8216         D2E/DX2 =    0.0129             !
 ! D113  D(17,12,15,29)         62.2583         D2E/DX2 =    0.0146             !
 ! D114  D(17,12,15,32)        -53.2779         D2E/DX2 =    0.0193             !
 ! D115  D(18,12,15,10)        -64.0748         D2E/DX2 =    0.0157             !
 ! D116  D(18,12,15,29)        178.3618         D2E/DX2 =    0.0207             !
 ! D117  D(18,12,15,32)         62.8256         D2E/DX2 =    0.0279             !
 ! D118  D(9,12,18,36)         -94.4582         D2E/DX2 =    0.0172             !
 ! D119  D(15,12,18,36)         26.9922         D2E/DX2 =    0.0152             !
 ! D120  D(17,12,18,36)        141.636          D2E/DX2 =    0.018              !
 ! D121  D(10,14,36,18)         -4.5566         D2E/DX2 =    0.0081             !
 ! D122  D(10,14,36,35)        104.7636         D2E/DX2 =    0.0284             !
 ! D123  D(10,15,29,1)         -60.0162         D2E/DX2 =    0.0158             !
 ! D124  D(10,15,29,30)         61.1802         D2E/DX2 =    0.0164             !
 ! D125  D(10,15,29,31)        178.5736         D2E/DX2 =    0.0163             !
 ! D126  D(12,15,29,1)          59.6171         D2E/DX2 =    0.0157             !
 ! D127  D(12,15,29,30)       -179.1865         D2E/DX2 =    0.0173             !
 ! D128  D(12,15,29,31)        -61.7931         D2E/DX2 =    0.0173             !
 ! D129  D(32,15,29,1)         176.5141         D2E/DX2 =    0.0274             !
 ! D130  D(32,15,29,30)        -62.2895         D2E/DX2 =    0.0209             !
 ! D131  D(32,15,29,31)         55.1039         D2E/DX2 =    0.0207             !
 ! D132  D(10,15,32,33)        159.2786         D2E/DX2 =    0.0232             !
 ! D133  D(10,15,32,37)        -47.841          D2E/DX2 =    0.0283             !
 ! D134  D(12,15,32,33)         34.3262         D2E/DX2 =    0.0207             !
 ! D135  D(12,15,32,37)       -172.7934         D2E/DX2 =    0.0329             !
 ! D136  D(29,15,32,33)        -81.4129         D2E/DX2 =    0.0235             !
 ! D137  D(29,15,32,37)         71.4675         D2E/DX2 =    0.0334             !
 ! D138  D(12,18,36,14)          4.6218         D2E/DX2 =    0.0087             !
 ! D139  D(12,18,36,35)        -63.1885         D2E/DX2 =    0.0813             !
 ! D140  D(11,19,65,66)        -51.6271         D2E/DX2 =    0.0204             !
 ! D141  D(11,19,65,67)         66.3828         D2E/DX2 =    0.0201             !
 ! D142  D(11,19,65,68)       -171.2418         D2E/DX2 =    0.0302             !
 ! D143  D(20,19,65,66)        169.6755         D2E/DX2 =    0.0167             !
 ! D144  D(20,19,65,67)        -72.3146         D2E/DX2 =    0.0181             !
 ! D145  D(20,19,65,68)         50.0608         D2E/DX2 =    0.0199             !
 ! D146  D(15,32,37,52)       -167.8587         D2E/DX2 =    0.072              !
 ! D147  D(33,32,37,52)        -19.0884         D2E/DX2 =    0.0401             !
 ! D148  D(34,35,36,14)        -35.1272         D2E/DX2 =    0.0403             !
 ! D149  D(34,35,36,18)         24.4266         D2E/DX2 =    0.0265             !
 ! D150  D(38,35,36,14)        143.6608         D2E/DX2 =    0.0284             !
 ! D151  D(38,35,36,18)       -156.7854         D2E/DX2 =    0.0228             !
 ! D152  D(34,35,38,39)        175.0288         D2E/DX2 =    0.0304             !
 ! D153  D(36,35,38,39)         -3.9329         D2E/DX2 =    0.0274             !
 ! D154  D(32,37,52,53)        -51.881          D2E/DX2 =    0.021              !
 ! D155  D(32,37,52,57)         71.7401         D2E/DX2 =    0.0222             !
 ! D156  D(32,37,52,61)       -170.4584         D2E/DX2 =    0.0188             !
 ! D157  D(35,38,39,40)       -178.2456         D2E/DX2 =    0.0223             !
 ! D158  D(35,38,39,44)         63.9874         D2E/DX2 =    0.0267             !
 ! D159  D(35,38,39,48)        -60.3963         D2E/DX2 =    0.0277             !
 ! D160  D(38,39,40,41)        -59.4054         D2E/DX2 =    0.0168             !
 ! D161  D(38,39,40,42)         60.0571         D2E/DX2 =    0.0167             !
 ! D162  D(38,39,40,43)       -179.6973         D2E/DX2 =    0.0168             !
 ! D163  D(44,39,40,41)         58.692          D2E/DX2 =    0.0151             !
 ! D164  D(44,39,40,42)        178.1545         D2E/DX2 =    0.0154             !
 ! D165  D(44,39,40,43)        -61.5999         D2E/DX2 =    0.015              !
 ! D166  D(48,39,40,41)       -177.6003         D2E/DX2 =    0.0158             !
 ! D167  D(48,39,40,42)        -58.1378         D2E/DX2 =    0.0154             !
 ! D168  D(48,39,40,43)         62.1078         D2E/DX2 =    0.0153             !
 ! D169  D(38,39,44,45)        -66.7796         D2E/DX2 =    0.0173             !
 ! D170  D(38,39,44,46)         53.5443         D2E/DX2 =    0.0165             !
 ! D171  D(38,39,44,47)        172.7693         D2E/DX2 =    0.0167             !
 ! D172  D(40,39,44,45)       -179.9889         D2E/DX2 =    0.0166             !
 ! D173  D(40,39,44,46)        -59.665          D2E/DX2 =    0.016              !
 ! D174  D(40,39,44,47)         59.56           D2E/DX2 =    0.0158             !
 ! D175  D(48,39,44,45)         57.1016         D2E/DX2 =    0.0165             !
 ! D176  D(48,39,44,46)        177.4255         D2E/DX2 =    0.0165             !
 ! D177  D(48,39,44,47)        -63.3495         D2E/DX2 =    0.016              !
 ! D178  D(38,39,48,49)        -52.7444         D2E/DX2 =    0.0162             !
 ! D179  D(38,39,48,50)         67.8891         D2E/DX2 =    0.0173             !
 ! D180  D(38,39,48,51)       -171.7623         D2E/DX2 =    0.0165             !
 ! D181  D(40,39,48,49)         60.5277         D2E/DX2 =    0.0161             !
 ! D182  D(40,39,48,50)       -178.8387         D2E/DX2 =    0.0168             !
 ! D183  D(40,39,48,51)        -58.4901         D2E/DX2 =    0.0157             !
 ! D184  D(44,39,48,49)       -176.5882         D2E/DX2 =    0.0162             !
 ! D185  D(44,39,48,50)        -55.9546         D2E/DX2 =    0.0163             !
 ! D186  D(44,39,48,51)         64.394          D2E/DX2 =    0.0155             !
 ! D187  D(37,52,53,54)        -51.3495         D2E/DX2 =    0.0155             !
 ! D188  D(37,52,53,55)         68.3816         D2E/DX2 =    0.0161             !
 ! D189  D(37,52,53,56)       -171.7979         D2E/DX2 =    0.0161             !
 ! D190  D(57,52,53,54)       -172.8975         D2E/DX2 =    0.0153             !
 ! D191  D(57,52,53,55)        -53.1664         D2E/DX2 =    0.0152             !
 ! D192  D(57,52,53,56)         66.6541         D2E/DX2 =    0.015              !
 ! D193  D(61,52,53,54)         62.1517         D2E/DX2 =    0.0153             !
 ! D194  D(61,52,53,55)       -178.1172         D2E/DX2 =    0.0158             !
 ! D195  D(61,52,53,56)        -58.2967         D2E/DX2 =    0.0153             !
 ! D196  D(37,52,57,58)        -64.5817         D2E/DX2 =    0.0176             !
 ! D197  D(37,52,57,59)         56.6449         D2E/DX2 =    0.0171             !
 ! D198  D(37,52,57,60)        175.7893         D2E/DX2 =    0.017              !
 ! D199  D(53,52,57,58)         58.5121         D2E/DX2 =    0.0163             !
 ! D200  D(53,52,57,59)        179.7387         D2E/DX2 =    0.0164             !
 ! D201  D(53,52,57,60)        -61.117          D2E/DX2 =    0.0158             !
 ! D202  D(61,52,57,58)       -176.7475         D2E/DX2 =    0.0163             !
 ! D203  D(61,52,57,59)        -55.5209         D2E/DX2 =    0.0158             !
 ! D204  D(61,52,57,60)         63.6235         D2E/DX2 =    0.0155             !
 ! D205  D(37,52,61,62)        -57.9583         D2E/DX2 =    0.0177             !
 ! D206  D(37,52,61,63)         62.3211         D2E/DX2 =    0.0179             !
 ! D207  D(37,52,61,64)       -177.8496         D2E/DX2 =    0.0177             !
 ! D208  D(53,52,61,62)       -176.7494         D2E/DX2 =    0.0162             !
 ! D209  D(53,52,61,63)        -56.47           D2E/DX2 =    0.0159             !
 ! D210  D(53,52,61,64)         63.3593         D2E/DX2 =    0.0158             !
 ! D211  D(57,52,61,62)         57.8491         D2E/DX2 =    0.0153             !
 ! D212  D(57,52,61,63)        178.1285         D2E/DX2 =    0.0156             !
 ! D213  D(57,52,61,64)        -62.0422         D2E/DX2 =    0.0151             !
 ! D214  D(19,65,68,69)       -118.8972         D2E/DX2 =    0.015              !
 ! D215  D(19,65,68,70)         59.0918         D2E/DX2 =    0.0147             !
 ! D216  D(66,65,68,69)        121.9461         D2E/DX2 =    0.0145             !
 ! D217  D(66,65,68,70)        -60.0648         D2E/DX2 =    0.0148             !
 ! D218  D(67,65,68,69)          7.2379         D2E/DX2 =    0.0142             !
 ! D219  D(67,65,68,70)       -174.773          D2E/DX2 =    0.0162             !
 ! D220  D(65,68,69,71)        178.7801         D2E/DX2 =    0.0088             !
 ! D221  D(65,68,69,74)         -0.7625         D2E/DX2 =    0.0081             !
 ! D222  D(70,68,69,71)          0.756          D2E/DX2 =    0.0076             !
 ! D223  D(70,68,69,74)       -178.7866         D2E/DX2 =    0.0073             !
 ! D224  D(65,68,70,72)       -178.8726         D2E/DX2 =    0.0086             !
 ! D225  D(65,68,70,75)          0.7848         D2E/DX2 =    0.008              !
 ! D226  D(69,68,70,72)         -0.8334         D2E/DX2 =    0.0075             !
 ! D227  D(69,68,70,75)        178.824          D2E/DX2 =    0.0071             !
 ! D228  D(68,69,71,73)         -0.2594         D2E/DX2 =    0.0095             !
 ! D229  D(68,69,71,76)       -179.7198         D2E/DX2 =    0.0085             !
 ! D230  D(74,69,71,73)        179.2804         D2E/DX2 =    0.0088             !
 ! D231  D(74,69,71,76)         -0.18           D2E/DX2 =    0.0094             !
 ! D232  D(68,70,72,73)          0.4145         D2E/DX2 =    0.0092             !
 ! D233  D(68,70,72,77)       -179.8704         D2E/DX2 =    0.0086             !
 ! D234  D(75,70,72,73)       -179.2394         D2E/DX2 =    0.0087             !
 ! D235  D(75,70,72,77)          0.4757         D2E/DX2 =    0.0094             !
 ! D236  D(69,71,73,72)         -0.1757         D2E/DX2 =    0.0096             !
 ! D237  D(69,71,73,78)       -179.7249         D2E/DX2 =    0.0087             !
 ! D238  D(76,71,73,72)        179.2829         D2E/DX2 =    0.0085             !
 ! D239  D(76,71,73,78)         -0.2663         D2E/DX2 =    0.0093             !
 ! D240  D(70,72,73,71)          0.0985         D2E/DX2 =    0.0095             !
 ! D241  D(70,72,73,78)        179.648          D2E/DX2 =    0.0085             !
 ! D242  D(77,72,73,71)       -179.6162         D2E/DX2 =    0.0085             !
 ! D243  D(77,72,73,78)         -0.0667         D2E/DX2 =    0.0093             !
 --------------------------------------------------------------------------------
 Trust Radius=3.00D-01 FncErr=1.00D-07 GrdErr=1.00D-06 EigMax=2.50D+02 EigMin=1.00D-04
 Number of steps in this run=    468 maximum allowed number of steps=    468.
 Search for a saddle point of order  1.
 GradGradGradGradGradGradGradGradGradGradGradGradGradGradGradGradGradGrad

 Stoichiometry    C27H43N3O5
 Framework group  C1[X(C27H43N3O5)]
 Deg. of freedom   228
 Full point group                 C1      NOp   1
 Largest Abelian subgroup         C1      NOp   1
 Largest concise Abelian subgroup C1      NOp   1
                         Standard orientation:                         
 ---------------------------------------------------------------------
 Center     Atomic      Atomic             Coordinates (Angstroms)
 Number     Number       Type             X           Y           Z
 ---------------------------------------------------------------------
      1          7           0       -2.670926   -3.131540   -0.204516
      2          6           0       -1.993045   -3.339362    1.065657
      3          6           0       -1.782263   -3.486665   -1.301334
      4          1           0       -2.700327   -3.141265    1.888555
      5          1           0       -1.688317   -4.395598    1.138417
      6          6           0       -0.775853   -2.416251    1.184020
      7          1           0       -2.331290   -3.397741   -2.253939
      8          1           0       -1.483848   -4.541121   -1.187590
      9          6           0       -0.554499   -2.566398   -1.317725
     10          6           0       -1.255285   -0.975548    1.024573
     11          6           0        0.216169   -2.714682    0.025683
     12          6           0       -1.065521   -1.132291   -1.430107
     13          1           0       -1.962309   -0.688612    1.813154
     14          1           0       -0.421919   -0.266836    1.033943
     15          7           0       -1.965941   -0.802572   -0.282431
     16          1           0        0.525294   -3.771926    0.119534
     17          1           0       -1.656399   -0.985056   -2.343120
     18          1           0       -0.247843   -0.396545   -1.416291
     19          7           0        1.395087   -1.897772    0.146195
     20          1           0        1.288885   -0.940535   -0.202490
     21          6           0       -0.114378   -2.573409    2.540991
     22          1           0        0.753741   -1.905686    2.621377
     23          1           0       -0.817852   -2.341540    3.356626
     24          1           0        0.237907   -3.607896    2.681787
     25          6           0        0.322288   -2.861337   -2.522846
     26          1           0        1.156287   -2.148522   -2.592738
     27          1           0        0.740845   -3.878382   -2.466524
     28          1           0       -0.257955   -2.786653   -3.456693
     29          6           0       -3.135878   -1.800787   -0.317526
     30          1           0       -3.787745   -1.529693    0.522380
     31          1           0       -3.644970   -1.625795   -1.274742
     32          6           0       -2.563751    0.598107   -0.499820
     33          8           0       -2.802009    0.934548   -1.625706
     34          8           0       -0.941433    1.642167    0.027459
     35          6           0        0.260628    1.784536   -0.325646
     36          8           0        1.037795    0.905779   -0.733901
     37          8           0       -3.214769    0.893197    0.607714
     38          8           0        0.683115    3.065396   -0.195249
     39          6           0        2.051544    3.452228   -0.437627
     40          6           0        2.044751    4.942744   -0.125420
     41          1           0        1.331981    5.469437   -0.777846
     42          1           0        1.742720    5.115387    0.918634
     43          1           0        3.044409    5.376814   -0.276614
     44          6           0        2.426258    3.221189   -1.897337
     45          1           0        2.432694    2.149015   -2.128554
     46          1           0        1.703481    3.722559   -2.559906
     47          1           0        3.424944    3.637298   -2.101738
     48          6           0        2.996141    2.718749    0.508197
     49          1           0        2.669025    2.851306    1.551485
     50          1           0        3.029050    1.645744    0.284012
     51          1           0        4.014110    3.127066    0.416322
     52          6           0       -4.130255    2.034700    0.674983
     53          6           0       -3.458813    3.306699    0.183215
     54          1           0       -2.498722    3.458506    0.691948
     55          1           0       -3.261235    3.263933   -0.895112
     56          1           0       -4.124267    4.159187    0.387229
     57          6           0       -5.378043    1.699700   -0.129277
     58          1           0       -5.137499    1.578720   -1.193856
     59          1           0       -5.845973    0.773709    0.239530
     60          1           0       -6.112286    2.513224   -0.030739
     61          6           0       -4.439858    2.125365    2.159121
     62          1           0       -4.873101    1.182818    2.527012
     63          1           0       -3.523123    2.334847    2.729522
     64          1           0       -5.160718    2.933980    2.347542
     65          6           0        2.683199   -2.459033   -0.174330
     66          1           0        2.800646   -3.406291    0.384143
     67          1           0        2.821143   -2.718818   -1.244516
     68          6           0        3.786059   -1.509107    0.222902
     69          6           0        4.664998   -0.986485   -0.728574
     70          6           0        3.921653   -1.100227    1.555534
     71          6           0        5.667991   -0.088347   -0.360226
     72          6           0        4.920973   -0.206283    1.928225
     73          6           0        5.799689    0.302691    0.969778
     74          1           0        4.556764   -1.282546   -1.776040
     75          1           0        3.226340   -1.488711    2.303955
     76          1           0        6.343457    0.313462   -1.119862
     77          1           0        5.014383    0.101041    2.973109
     78          1           0        6.581094    1.009227    1.260919
 ---------------------------------------------------------------------
 Rotational constants (GHZ):           0.1525124           0.1013720           0.0726632
 Standard basis: def2SVP (5D, 7F)
 There are   740 symmetry adapted cartesian basis functions of A   symmetry.
 There are   705 symmetry adapted basis functions of A   symmetry.
   705 basis functions,  1176 primitive gaussians,   740 cartesian basis functions
   133 alpha electrons      133 beta electrons
       nuclear repulsion energy      4400.3213558834 Hartrees.
 NAtoms=   78 NActive=   78 NUniq=   78 SFac= 1.00D+00 NAtFMM=   60 NAOKFM=T Big=T
 Integral buffers will be    131072 words long.
 Raffenetti 2 integral format.
 Two-electron integral symmetry is turned on.
 Nuclear repulsion after empirical dispersion term =     4400.2202367148 Hartrees.
 One-electron integrals computed using PRISM.
 PrsmSu:  requested number of processors reduced to:  21 ShMem   1 Linda.
   1 Symmetry operations used in ECPInt.
 ECPInt:  NShTT=   57630 NPrTT=  202514 LenC2=   49275 LenP2D=  114507.
 LDataN:  DoStor=T MaxTD1= 4 Len=   56
 Number of processors reduced to   9 by ecpmxn.
 NBasis=   705 RedAO= T EigKep=  2.83D-04  NBF=   705
 NBsUse=   705 1.00D-06 EigRej= -1.00D+00 NBFU=   705
 Initial guess from the checkpoint file:  "elim_ts_optts_b.chk"
 B after Tr=     0.000000   -0.000000    0.000000
         Rot=    1.000000   -0.000000    0.000000    0.000000 Ang=   0.00 deg.
 Requested convergence on RMS density matrix=1.00D-08 within 128 cycles.
 Requested convergence on MAX density matrix=1.00D-06.
 Requested convergence on             energy=1.00D-06.
 No special actions if energy rises.
 SCF Done:  E(RPBE1PBE) =  -1592.30074900     A.U. after   10 cycles
            NFock= 10  Conv=0.63D-08     -V/T= 2.0103

 **********************************************************************

            Population analysis using the SCF density.

 **********************************************************************

 Orbital symmetries:
       Occupied  (A) (A) (A) (A) (A) (A) (A) (A) (A) (A) (A) (A)
                 (A) (A) (A) (A) (A) (A) (A) (A) (A) (A) (A) (A)
                 (A) (A) (A) (A) (A) (A) (A) (A) (A) (A) (A) (A)
                 (A) (A) (A) (A) (A) (A) (A) (A) (A) (A) (A) (A)
                 (A) (A) (A) (A) (A) (A) (A) (A) (A) (A) (A) (A)
                 (A) (A) (A) (A) (A) (A) (A) (A) (A) (A) (A) (A)
                 (A) (A) (A) (A) (A) (A) (A) (A) (A) (A) (A) (A)
                 (A) (A) (A) (A) (A) (A) (A) (A) (A) (A) (A) (A)
                 (A) (A) (A) (A) (A) (A) (A) (A) (A) (A) (A) (A)
                 (A) (A) (A) (A) (A) (A) (A) (A) (A) (A) (A) (A)
                 (A) (A) (A) (A) (A) (A) (A) (A) (A) (A) (A) (A)
                 (A)
       Virtual   (A) (A) (A) (A) (A) (A) (A) (A) (A) (A) (A) (A)
                 (A) (A) (A) (A) (A) (A) (A) (A) (A) (A) (A) (A)
                 (A) (A) (A) (A) (A) (A) (A) (A) (A) (A) (A) (A)
                 (A) (A) (A) (A) (A) (A) (A) (A) (A) (A) (A) (A)
                 (A) (A) (A) (A) (A) (A) (A) (A) (A) (A) (A) (A)
                 (A) (A) (A) (A) (A) (A) (A) (A) (A) (A) (A) (A)
                 (A) (A) (A) (A) (A) (A) (A) (A) (A) (A) (A) (A)
                 (A) (A) (A) (A) (A) (A) (A) (A) (A) (A) (A) (A)
                 (A) (A) (A) (A) (A) (A) (A) (A) (A) (A) (A) (A)
                 (A) (A) (A) (A) (A) (A) (A) (A) (A) (A) (A) (A)
                 (A) (A) (A) (A) (A) (A) (A) (A) (A) (A) (A) (A)
                 (A) (A) (A) (A) (A) (A) (A) (A) (A) (A) (A) (A)
                 (A) (A) (A) (A) (A) (A) (A) (A) (A) (A) (A) (A)
                 (A) (A) (A) (A) (A) (A) (A) (A) (A) (A) (A) (A)
                 (A) (A) (A) (A) (A) (A) (A) (A) (A) (A) (A) (A)
                 (A) (A) (A) (A) (A) (A) (A) (A) (A) (A) (A) (A)
                 (A) (A) (A) (A) (A) (A) (A) (A) (A) (A) (A) (A)
                 (A) (A) (A) (A) (A) (A) (A) (A) (A) (A) (A) (A)
                 (A) (A) (A) (A) (A) (A) (A) (A) (A) (A) (A) (A)
                 (A) (A) (A) (A) (A) (A) (A) (A) (A) (A) (A) (A)
                 (A) (A) (A) (A) (A) (A) (A) (A) (A) (A) (A) (A)
                 (A) (A) (A) (A) (A) (A) (A) (A) (A) (A) (A) (A)
                 (A) (A) (A) (A) (A) (A) (A) (A) (A) (A) (A) (A)
                 (A) (A) (A) (A) (A) (A) (A) (A) (A) (A) (A) (A)
                 (A) (A) (A) (A) (A) (A) (A) (A) (A) (A) (A) (A)
                 (A) (A) (A) (A) (A) (A) (A) (A) (A) (A) (A) (A)
                 (A) (A) (A) (A) (A) (A) (A) (A) (A) (A) (A) (A)
                 (A) (A) (A) (A) (A) (A) (A) (A) (A) (A) (A) (A)
                 (A) (A) (A) (A) (A) (A) (A) (A) (A) (A) (A) (A)
                 (A) (A) (A) (A) (A) (A) (A) (A) (A) (A) (A) (A)
                 (A) (A) (A) (A) (A) (A) (A) (A) (A) (A) (A) (A)
                 (A) (A) (A) (A) (A) (A) (A) (A) (A) (A) (A) (A)
                 (A) (A) (A) (A) (A) (A) (A) (A) (A) (A) (A) (A)
                 (A) (A) (A) (A) (A) (A) (A) (A) (A) (A) (A) (A)
                 (A) (A) (A) (A) (A) (A) (A) (A) (A) (A) (A) (A)
                 (A) (A) (A) (A) (A) (A) (A) (A) (A) (A) (A) (A)
                 (A) (A) (A) (A) (A) (A) (A) (A) (A) (A) (A) (A)
                 (A) (A) (A) (A) (A) (A) (A) (A) (A) (A) (A) (A)
                 (A) (A) (A) (A) (A) (A) (A) (A) (A) (A) (A) (A)
                 (A) (A) (A) (A) (A) (A) (A) (A) (A) (A) (A) (A)
                 (A) (A) (A) (A) (A) (A) (A) (A) (A) (A) (A) (A)
                 (A) (A) (A) (A) (A) (A) (A) (A) (A) (A) (A) (A)
                 (A) (A) (A) (A) (A) (A) (A) (A) (A) (A) (A) (A)
                 (A) (A) (A) (A) (A) (A) (A) (A) (A) (A) (A) (A)
                 (A) (A) (A) (A) (A) (A) (A) (A) (A) (A) (A) (A)
                 (A) (A) (A) (A) (A) (A) (A) (A) (A) (A) (A) (A)
                 (A) (A) (A) (A) (A) (A) (A) (A) (A) (A) (A) (A)
                 (A) (A) (A) (A) (A) (A) (A) (A)
 The electronic state is 1-A.
 Alpha  occ. eigenvalues --  -19.25447 -19.19865 -19.19259 -19.14828 -19.14318
 Alpha  occ. eigenvalues --  -14.51291 -14.41993 -14.36486 -10.41056 -10.34278
 Alpha  occ. eigenvalues --  -10.32730 -10.30481 -10.28083 -10.27831 -10.27822
 Alpha  occ. eigenvalues --  -10.27328 -10.27238 -10.26842 -10.26100 -10.25999
 Alpha  occ. eigenvalues --  -10.25640 -10.23899 -10.23445 -10.23435 -10.23038
 Alpha  occ. eigenvalues --  -10.23019 -10.22956 -10.22934 -10.22925 -10.22802
 Alpha  occ. eigenvalues --  -10.22758 -10.20911 -10.20223 -10.19533 -10.19319
 Alpha  occ. eigenvalues --   -1.14314  -1.09049  -1.05567  -1.04127  -0.99035
 Alpha  occ. eigenvalues --   -0.96941  -0.95574  -0.93283  -0.87025  -0.85261
 Alpha  occ. eigenvalues --   -0.84858  -0.83469  -0.79363  -0.77221  -0.75200
 Alpha  occ. eigenvalues --   -0.74739  -0.73837  -0.72968  -0.71861  -0.71105
 Alpha  occ. eigenvalues --   -0.70771  -0.69984  -0.67998  -0.67663  -0.67430
 Alpha  occ. eigenvalues --   -0.65052  -0.63632  -0.61120  -0.61011  -0.60672
 Alpha  occ. eigenvalues --   -0.59212  -0.59028  -0.55559  -0.54548  -0.53889
 Alpha  occ. eigenvalues --   -0.52515  -0.52355  -0.51621  -0.51522  -0.51090
 Alpha  occ. eigenvalues --   -0.50098  -0.49777  -0.49146  -0.48541  -0.47554
 Alpha  occ. eigenvalues --   -0.46599  -0.46304  -0.45959  -0.45703  -0.45589
 Alpha  occ. eigenvalues --   -0.44553  -0.44314  -0.44012  -0.43375  -0.43292
 Alpha  occ. eigenvalues --   -0.42816  -0.42544  -0.42430  -0.41877  -0.41399
 Alpha  occ. eigenvalues --   -0.41296  -0.40998  -0.40678  -0.40507  -0.40154
 Alpha  occ. eigenvalues --   -0.39886  -0.39861  -0.39648  -0.39356  -0.38755
 Alpha  occ. eigenvalues --   -0.38346  -0.37852  -0.37644  -0.37386  -0.37153
 Alpha  occ. eigenvalues --   -0.36951  -0.36859  -0.35825  -0.35244  -0.35043
 Alpha  occ. eigenvalues --   -0.34910  -0.34702  -0.34412  -0.33840  -0.33577
 Alpha  occ. eigenvalues --   -0.33332  -0.33225  -0.31695  -0.31171  -0.29665
 Alpha  occ. eigenvalues --   -0.27335  -0.26968  -0.26076  -0.25842  -0.25344
 Alpha  occ. eigenvalues --   -0.25308  -0.23436  -0.21935
 Alpha virt. eigenvalues --    0.00076   0.00611   0.02787   0.04241   0.05819
 Alpha virt. eigenvalues --    0.06815   0.06890   0.07191   0.07630   0.08067
 Alpha virt. eigenvalues --    0.09037   0.09155   0.09785   0.10027   0.10557
 Alpha virt. eigenvalues --    0.10754   0.11039   0.11995   0.12111   0.12540
 Alpha virt. eigenvalues --    0.12887   0.13278   0.13602   0.13835   0.13952
 Alpha virt. eigenvalues --    0.14324   0.14663   0.14830   0.15107   0.15153
 Alpha virt. eigenvalues --    0.15229   0.15480   0.15717   0.16207   0.16349
 Alpha virt. eigenvalues --    0.16430   0.16635   0.16971   0.17425   0.17776
 Alpha virt. eigenvalues --    0.17960   0.18431   0.18631   0.19022   0.19464
 Alpha virt. eigenvalues --    0.19851   0.20145   0.20500   0.20694   0.21041
 Alpha virt. eigenvalues --    0.21455   0.21794   0.21971   0.22288   0.22434
 Alpha virt. eigenvalues --    0.23078   0.23228   0.23495   0.23688   0.24007
 Alpha virt. eigenvalues --    0.24473   0.24549   0.25106   0.25236   0.25803
 Alpha virt. eigenvalues --    0.26240   0.26751   0.26951   0.27132   0.27694
 Alpha virt. eigenvalues --    0.28806   0.28960   0.30683   0.30805   0.31700
 Alpha virt. eigenvalues --    0.32256   0.33107   0.33975   0.34687   0.35520
 Alpha virt. eigenvalues --    0.38717   0.39556   0.39956   0.40713   0.41020
 Alpha virt. eigenvalues --    0.41905   0.42314   0.42404   0.42965   0.43527
 Alpha virt. eigenvalues --    0.44044   0.44469   0.44918   0.45488   0.45767
 Alpha virt. eigenvalues --    0.46179   0.46257   0.47019   0.47552   0.48000
 Alpha virt. eigenvalues --    0.48509   0.49190   0.49293   0.49454   0.50302
 Alpha virt. eigenvalues --    0.50914   0.51042   0.51673   0.52417   0.52569
 Alpha virt. eigenvalues --    0.53068   0.54246   0.54710   0.55038   0.56022
 Alpha virt. eigenvalues --    0.56322   0.56723   0.56879   0.57363   0.58356
 Alpha virt. eigenvalues --    0.58573   0.58941   0.59102   0.59306   0.59743
 Alpha virt. eigenvalues --    0.60452   0.60956   0.61230   0.61544   0.62378
 Alpha virt. eigenvalues --    0.62613   0.62711   0.63009   0.63712   0.63950
 Alpha virt. eigenvalues --    0.64274   0.64700   0.64985   0.65039   0.65344
 Alpha virt. eigenvalues --    0.65600   0.65885   0.66382   0.66461   0.66595
 Alpha virt. eigenvalues --    0.66707   0.67174   0.67228   0.67521   0.68006
 Alpha virt. eigenvalues --    0.68042   0.68217   0.68569   0.68764   0.68842
 Alpha virt. eigenvalues --    0.69175   0.69537   0.69583   0.69896   0.70272
 Alpha virt. eigenvalues --    0.70482   0.70887   0.71171   0.71270   0.71490
 Alpha virt. eigenvalues --    0.71704   0.71882   0.72105   0.72327   0.72523
 Alpha virt. eigenvalues --    0.72722   0.72973   0.73261   0.73397   0.73608
 Alpha virt. eigenvalues --    0.74064   0.74285   0.74565   0.74598   0.74963
 Alpha virt. eigenvalues --    0.75032   0.75260   0.75650   0.76269   0.76412
 Alpha virt. eigenvalues --    0.76776   0.77115   0.77610   0.77879   0.77948
 Alpha virt. eigenvalues --    0.78432   0.79058   0.79250   0.80008   0.80483
 Alpha virt. eigenvalues --    0.81083   0.81269   0.82522   0.83459   0.84011
 Alpha virt. eigenvalues --    0.85185   0.85958   0.87084   0.87936   0.88338
 Alpha virt. eigenvalues --    0.90014   0.91816   0.92959   0.93596   0.94282
 Alpha virt. eigenvalues --    0.94856   0.95185   0.95412   0.96840   0.97482
 Alpha virt. eigenvalues --    0.98195   0.99145   0.99744   1.00164   1.02238
 Alpha virt. eigenvalues --    1.03856   1.05748   1.06346   1.07300   1.07573
 Alpha virt. eigenvalues --    1.08423   1.09052   1.10311   1.10884   1.11548
 Alpha virt. eigenvalues --    1.12255   1.12969   1.13336   1.13743   1.14126
 Alpha virt. eigenvalues --    1.15024   1.15442   1.16421   1.17299   1.18101
 Alpha virt. eigenvalues --    1.18246   1.18933   1.20229   1.20520   1.21952
 Alpha virt. eigenvalues --    1.22642   1.22938   1.24024   1.24618   1.26084
 Alpha virt. eigenvalues --    1.26435   1.26710   1.27061   1.27568   1.27875
 Alpha virt. eigenvalues --    1.28218   1.29139   1.29702   1.30122   1.30892
 Alpha virt. eigenvalues --    1.31084   1.31236   1.31743   1.32895   1.33009
 Alpha virt. eigenvalues --    1.34048   1.35131   1.35691   1.37120   1.37956
 Alpha virt. eigenvalues --    1.38448   1.39182   1.40604   1.42301   1.43416
 Alpha virt. eigenvalues --    1.46566   1.47869   1.49159   1.49905   1.50088
 Alpha virt. eigenvalues --    1.50735   1.51450   1.52841   1.53538   1.53713
 Alpha virt. eigenvalues --    1.54099   1.54205   1.54791   1.55144   1.55629
 Alpha virt. eigenvalues --    1.56450   1.56626   1.56913   1.57435   1.57862
 Alpha virt. eigenvalues --    1.58368   1.58624   1.59237   1.59995   1.60094
 Alpha virt. eigenvalues --    1.61492   1.62128   1.63063   1.63728   1.64069
 Alpha virt. eigenvalues --    1.65666   1.66642   1.67430   1.67753   1.68545
 Alpha virt. eigenvalues --    1.68815   1.69210   1.70732   1.71033   1.71700
 Alpha virt. eigenvalues --    1.72206   1.72496   1.73167   1.73845   1.74440
 Alpha virt. eigenvalues --    1.75311   1.75543   1.75694   1.76246   1.77004
 Alpha virt. eigenvalues --    1.77029   1.77277   1.77601   1.78178   1.78294
 Alpha virt. eigenvalues --    1.79006   1.79107   1.79263   1.79552   1.80034
 Alpha virt. eigenvalues --    1.80612   1.80914   1.81316   1.81588   1.81996
 Alpha virt. eigenvalues --    1.82244   1.82578   1.83352   1.83737   1.83912
 Alpha virt. eigenvalues --    1.84493   1.85056   1.85159   1.85293   1.85580
 Alpha virt. eigenvalues --    1.86119   1.86264   1.86738   1.86934   1.87196
 Alpha virt. eigenvalues --    1.87606   1.87724   1.88114   1.88541   1.88811
 Alpha virt. eigenvalues --    1.89463   1.89676   1.89822   1.90027   1.90549
 Alpha virt. eigenvalues --    1.90825   1.91366   1.91535   1.92032   1.92831
 Alpha virt. eigenvalues --    1.93031   1.93228   1.93730   1.94271   1.94416
 Alpha virt. eigenvalues --    1.95090   1.95310   1.96461   1.96566   1.97047
 Alpha virt. eigenvalues --    1.97768   1.98229   1.98626   1.99365   1.99371
 Alpha virt. eigenvalues --    1.99829   2.00232   2.00769   2.00889   2.01424
 Alpha virt. eigenvalues --    2.01528   2.02631   2.03383   2.03958   2.04296
 Alpha virt. eigenvalues --    2.05041   2.05575   2.06315   2.07121   2.07481
 Alpha virt. eigenvalues --    2.07990   2.09091   2.09436   2.10523   2.11061
 Alpha virt. eigenvalues --    2.11558   2.12010   2.12737   2.13433   2.14031
 Alpha virt. eigenvalues --    2.14422   2.15437   2.15845   2.15980   2.16882
 Alpha virt. eigenvalues --    2.17134   2.18443   2.18761   2.19719   2.19829
 Alpha virt. eigenvalues --    2.20235   2.21091   2.21708   2.21823   2.23051
 Alpha virt. eigenvalues --    2.23388   2.23733   2.24020   2.25383   2.25811
 Alpha virt. eigenvalues --    2.26233   2.28267   2.29869   2.30821   2.32106
 Alpha virt. eigenvalues --    2.32887   2.33245   2.34169   2.34319   2.36448
 Alpha virt. eigenvalues --    2.36748   2.37415   2.37754   2.38685   2.38996
 Alpha virt. eigenvalues --    2.39571   2.39764   2.40253   2.40379   2.41858
 Alpha virt. eigenvalues --    2.42795   2.43487   2.44369   2.44912   2.45977
 Alpha virt. eigenvalues --    2.46656   2.46836   2.47682   2.48958   2.49622
 Alpha virt. eigenvalues --    2.49826   2.51068   2.51283   2.51660   2.52195
 Alpha virt. eigenvalues --    2.53248   2.54240   2.54983   2.57019   2.58305
 Alpha virt. eigenvalues --    2.59290   2.59669   2.60800   2.61070   2.61656
 Alpha virt. eigenvalues --    2.63350   2.64411   2.65166   2.65276   2.65496
 Alpha virt. eigenvalues --    2.66266   2.66840   2.67164   2.67547   2.67840
 Alpha virt. eigenvalues --    2.68802   2.69412   2.69963   2.70655   2.71236
 Alpha virt. eigenvalues --    2.71503   2.72835   2.72887   2.73224   2.74864
 Alpha virt. eigenvalues --    2.75214   2.75963   2.76164   2.77196   2.77904
 Alpha virt. eigenvalues --    2.78884   2.80024   2.80714   2.81018   2.82414
 Alpha virt. eigenvalues --    2.83978   2.84528   2.85918   2.86648   2.87686
 Alpha virt. eigenvalues --    2.87692   2.88816   2.89212   2.89656   2.89889
 Alpha virt. eigenvalues --    2.90464   2.90662   2.91333   2.91891   2.92518
 Alpha virt. eigenvalues --    2.93354   2.94426   2.94733   2.95838   2.96212
 Alpha virt. eigenvalues --    2.96723   2.97471   2.98029   2.98233   2.98486
 Alpha virt. eigenvalues --    2.98534   2.98904   2.99230   3.00593   3.00983
 Alpha virt. eigenvalues --    3.01693   3.02069   3.02213   3.05421   3.07826
 Alpha virt. eigenvalues --    3.08388   3.08943   3.09493   3.11237   3.11963
 Alpha virt. eigenvalues --    3.12679   3.13106   3.13998   3.15668   3.15792
 Alpha virt. eigenvalues --    3.16138   3.17111   3.19540   3.21764   3.23470
 Alpha virt. eigenvalues --    3.24576   3.25279   3.26725   3.27214   3.30962
 Alpha virt. eigenvalues --    3.32201   3.36046   3.36397   3.48524   3.49171
 Alpha virt. eigenvalues --    3.49890   3.58665   3.66524   3.69369   3.78769
 Alpha virt. eigenvalues --    3.79502   3.86584
          Condensed to atoms (all electrons):
 Mulliken charges:
               1
     1  N   -0.358690
     2  C    0.208570
     3  C    0.208887
     4  H    0.032739
     5  H    0.033302
     6  C   -0.424474
     7  H    0.033399
     8  H    0.032540
     9  C   -0.440929
    10  C    0.200152
    11  C    0.153388
    12  C    0.164134
    13  H    0.061665
    14  H    0.085506
    15  N   -0.454035
    16  H    0.004363
    17  H    0.062163
    18  H    0.100192
    19  N   -0.327409
    20  H    0.171850
    21  C    0.060545
    22  H    0.065768
    23  H    0.031921
    24  H    0.032754
    25  C    0.056872
    26  H    0.066146
    27  H    0.040117
    28  H    0.036335
    29  C    0.245532
    30  H    0.067044
    31  H    0.067854
    32  C    0.435190
    33  O   -0.248901
    34  O   -0.408803
    35  C    0.393695
    36  O   -0.422075
    37  O   -0.347511
    38  O   -0.339458
    39  C   -0.130350
    40  C    0.005662
    41  H    0.038225
    42  H    0.036056
    43  H    0.026948
    44  C   -0.000495
    45  H    0.059334
    46  H    0.032337
    47  H    0.023028
    48  C   -0.010921
    49  H    0.026471
    50  H    0.086185
    51  H    0.022777
    52  C   -0.155359
    53  C    0.013794
    54  H    0.074195
    55  H    0.063623
    56  H    0.030495
    57  C   -0.002615
    58  H    0.066972
    59  H    0.030622
    60  H    0.043699
    61  C   -0.000249
    62  H    0.033501
    63  H    0.057871
    64  H    0.042646
    65  C    0.212855
    66  H    0.025213
    67  H   -0.006294
    68  C   -0.109033
    69  C   -0.018693
    70  C   -0.011357
    71  C   -0.019144
    72  C   -0.015928
    73  C   -0.016282
    74  H    0.006061
    75  H    0.005938
    76  H    0.017110
    77  H    0.016184
    78  H    0.018578
 Sum of Mulliken charges =  -0.00000
 Mulliken charges with hydrogens summed into heavy atoms:
               1
     1  N   -0.358690
     2  C    0.274611
     3  C    0.274826
     6  C   -0.424474
     9  C   -0.440929
    10  C    0.347323
    11  C    0.157751
    12  C    0.326489
    15  N   -0.454035
    19  N   -0.155559
    21  C    0.190988
    25  C    0.199469
    29  C    0.380429
    32  C    0.435190
    33  O   -0.248901
    34  O   -0.408803
    35  C    0.393695
    36  O   -0.422075
    37  O   -0.347511
    38  O   -0.339458
    39  C   -0.130350
    40  C    0.106891
    44  C    0.114204
    48  C    0.124511
    52  C   -0.155359
    53  C    0.182108
    57  C    0.138679
    61  C    0.133769
    65  C    0.231774
    68  C   -0.109033
    69  C   -0.012632
    70  C   -0.005419
    71  C   -0.002034
    72  C    0.000257
    73  C    0.002296
 Electronic spatial extent (au):  <R**2>=          15800.0842
 Charge=             -0.0000 electrons
 Dipole moment (field-independent basis, Debye):
    X=             -2.9523    Y=             -4.6350    Z=              1.2945  Tot=              5.6458
 Quadrupole moment (field-independent basis, Debye-Ang):
   XX=           -202.2067   YY=           -207.1215   ZZ=           -207.2430
   XY=              5.0342   XZ=             -6.2621   YZ=              5.2886
 Traceless Quadrupole moment (field-independent basis, Debye-Ang):
   XX=              3.3170   YY=             -1.5978   ZZ=             -1.7192
   XY=              5.0342   XZ=             -6.2621   YZ=              5.2886
 Octapole moment (field-independent basis, Debye-Ang**2):
  XXX=            -90.1621  YYY=             -2.0753  ZZZ=              1.4518  XYY=            -20.2202
  XXY=             75.9092  XXZ=              7.6271  XZZ=             -3.7937  YZZ=             -7.8088
  YYZ=             -3.9424  XYZ=             -3.3682
 Hexadecapole moment (field-independent basis, Debye-Ang**3):
 XXXX=         -11647.4630 YYYY=          -7385.1215 ZZZZ=          -2131.3983 XXXY=            115.8712
 XXXZ=           -138.8169 YYYX=            -80.3857 YYYZ=             -7.7237 ZZZX=             14.1915
 ZZZY=             28.9034 XXYY=          -3210.3175 XXZZ=          -2287.9062 YYZZ=          -1573.1085
 XXYZ=             78.7153 YYXZ=            -35.2148 ZZXY=             30.2395
 N-N= 4.400220236715D+03 E-N=-1.250393022161D+04  KE= 1.576091167274D+03
 PrsmSu:  requested number of processors reduced to:  23 ShMem   1 Linda.
   1 Symmetry operations used in ECPInt.
 ECPInt:  NShTT=   57630 NPrTT=  202514 LenC2=   49275 LenP2D=  114507.
 LDataN:  DoStor=T MaxTD1= 5 Len=  102
 Number of processors reduced to  10 by ecpmxn.
 Calling FoFJK, ICntrl=      2127 FMM=T ISym2X=0 I1Cent= 0 IOpClX= 0 NMat=1 NMatS=1 NMatT=0.
 ***** Axes restored to original set *****
 -------------------------------------------------------------------
 Center     Atomic                   Forces (Hartrees/Bohr)
 Number     Number              X              Y              Z
 -------------------------------------------------------------------
      1        7          -0.000081051   -0.001306220    0.000476065
      2        6          -0.000312350    0.000376206   -0.000987932
      3        6          -0.000257001    0.000879706    0.000513548
      4        1           0.000025856   -0.000184621    0.000203925
      5        1           0.000024159   -0.000158299    0.000215267
      6        6          -0.000071349    0.000012806   -0.000044803
      7        1          -0.000015024   -0.000271505   -0.000041424
      8        1           0.000044493   -0.000276341   -0.000032531
      9        6          -0.000187376    0.000043872    0.000195713
     10        6           0.000361945   -0.000210136   -0.000336521
     11        6           0.000099414    0.001361413   -0.000594094
     12        6           0.000172549   -0.000266804    0.000279576
     13        1          -0.000450729    0.000175791   -0.000107357
     14        1          -0.000332375    0.000189061   -0.000259285
     15        7           0.000439968   -0.000641559    0.000643148
     16        1           0.000377956   -0.000208445    0.000106190
     17        1          -0.000579258    0.000382145   -0.000130253
     18        1          -0.000033702    0.001008419   -0.000323404
     19        7          -0.000261323   -0.001659492    0.000457583
     20        1          -0.000458830    0.001146735   -0.000156152
     21        6           0.000575193    0.000619326    0.000591442
     22        1           0.000010331   -0.000277480   -0.000469169
     23        1          -0.000121788   -0.000180439   -0.000115237
     24        1          -0.000152806   -0.000001770   -0.000144771
     25        6           0.000323116   -0.000089283   -0.000780803
     26        1          -0.000084056   -0.000026796    0.000442786
     27        1          -0.000014699    0.000167494    0.000143472
     28        1          -0.000069331    0.000033091    0.000176710
     29        6           0.001945867    0.001654245   -0.000526559
     30        1          -0.000689247   -0.000202312   -0.000066229
     31        1          -0.000588710   -0.000061979    0.000112106
     32        6          -0.005573572   -0.006719900   -0.002506852
     33        8           0.000772504   -0.001295447    0.001637279
     34        8           0.003170675    0.007408355    0.000638856
     35        6          -0.000618323    0.002406032   -0.001271817
     36        8           0.000991210   -0.001797115    0.000498312
     37        8          -0.000155324   -0.000669018    0.001848042
     38        8           0.000439843   -0.000538653    0.000073224
     39        6          -0.000221819   -0.000455567    0.000376970
     40        6          -0.000881752    0.000878763    0.000145834
[...]
      2          6           0       -2.321496   -3.365047    0.777780
      3          6           0       -1.981045   -3.302641   -1.580730
      4          1           0       -3.072449   -3.232057    1.575318
      5          1           0       -2.038947   -4.429990    0.769046
      6          6           0       -1.097878   -2.481532    1.048119
      7          1           0       -2.475925   -3.114768   -2.548852
      8          1           0       -1.709423   -4.370159   -1.551981
      9          6           0       -0.742260   -2.413186   -1.440767
     10          6           0       -1.553306   -1.025884    1.008821
     11          6           0       -0.048426   -2.697165   -0.077747
     12          6           0       -1.193121   -0.955064   -1.429434
     13          1           0       -2.314148   -0.824398    1.773633
     14          1           0       -0.739048   -0.296893    1.124528
     15          7           0       -2.180287   -0.720265   -0.322861
     16          1           0        0.229540   -3.767734   -0.060546
     17          1           0       -1.683386   -0.655406   -2.363963
     18          1           0       -0.314466   -0.311890   -1.248734
     19          7           0        1.139290   -1.923553    0.165786
     20          1           0        1.126728   -0.965209   -0.210381
     21          6           0       -0.510283   -2.781746    2.415474
     22          1           0        0.381182   -2.163753    2.584049
     23          1           0       -1.240251   -2.586650    3.217149
     24          1           0       -0.208765   -3.839221    2.480435
     25          6           0        0.207941   -2.605461   -2.611674
     26          1           0        1.054135   -1.906963   -2.545755
     27          1           0        0.603622   -3.632776   -2.629761
     28          1           0       -0.306304   -2.421592   -3.568390
     29          6           0       -3.360210   -1.690658   -0.529471
     30          1           0       -4.069605   -1.478647    0.283248
     31          1           0       -3.799531   -1.421764   -1.500362
     32          6           0       -2.741308    0.676628   -0.438666
     33          8           0       -2.912734    1.143929   -1.521775
     34          8           0       -0.515912    1.560772    0.264429
     35          6           0        0.586240    1.689335   -0.311177
     36          8           0        1.211069    0.804464   -0.935835
     37          8           0       -3.170313    1.052492    0.725280
     38          8           0        1.106505    2.943458   -0.218467
     39          6           0        2.382605    3.293492   -0.781499
     40          6           0        2.528362    4.764654   -0.411676
     41          1           0        1.700780    5.349328   -0.840154
     42          1           0        2.502400    4.885882    0.681356
     43          1           0        3.479520    5.168378   -0.789509
     44          6           0        2.364966    3.132233   -2.298664
     45          1           0        2.244039    2.075524   -2.565937
     46          1           0        1.529673    3.706356   -2.728711
     47          1           0        3.303507    3.511915   -2.731131
     48          6           0        3.499922    2.476505   -0.140745
     49          1           0        3.465153    2.582911    0.954026
     50          1           0        3.401408    1.412799   -0.388805
     51          1           0        4.480801    2.835542   -0.488398
     52          6           0       -3.780528    2.383650    0.933633
     53          6           0       -2.915570    3.473392    0.322184
     54          1           0       -1.859916    3.303413    0.579958
     55          1           0       -2.997448    3.486569   -0.771661
     56          1           0       -3.252366    4.444798    0.713204
     57          6           0       -5.180120    2.339916    0.342570
     58          1           0       -5.138528    2.185904   -0.744563
     59          1           0       -5.778374    1.537566    0.800925
     60          1           0       -5.687596    3.296851    0.532954
     61          6           0       -3.803303    2.490043    2.447475
     62          1           0       -4.364352    1.654243    2.891478
     63          1           0       -2.776250    2.476953    2.838730
     64          1           0       -4.283666    3.431418    2.748949
     65          6           0        2.420338   -2.546900   -0.043219
     66          1           0        2.437541   -3.506866    0.508536
     67          1           0        2.634352   -2.809011   -1.101479
     68          6           0        3.549835   -1.681010    0.459442
     69          6           0        4.743414   -1.579208   -0.259436
     70          6           0        3.429324   -0.972346    1.659511
     71          6           0        5.800237   -0.802602    0.214094
     72          6           0        4.481926   -0.196424    2.135853
     73          6           0        5.673529   -0.109994    1.416003
     74          1           0        4.842259   -2.109397   -1.211169
     75          1           0        2.485914   -1.020849    2.206531
     76          1           0        6.723530   -0.730063   -0.366036
     77          1           0        4.367983    0.355760    3.072068
     78          1           0        6.496296    0.506934    1.785200
 ---------------------------------------------------------------------
 Rotational constants (GHZ):           0.1478917           0.1015761           0.0735209
 Standard basis: def2SVP (5D, 7F)
 There are   740 symmetry adapted cartesian basis functions of A   symmetry.
 There are   705 symmetry adapted basis functions of A   symmetry.
   705 basis functions,  1176 primitive gaussians,   740 cartesian basis functions
   133 alpha electrons      133 beta electrons
       nuclear repulsion energy      4388.4183404919 Hartrees.
 NAtoms=   78 NActive=   78 NUniq=   78 SFac= 1.00D+00 NAtFMM=   60 NAOKFM=T Big=T
 Integral buffers will be    131072 words long.
 Raffenetti 2 integral format.
 Two-electron integral symmetry is turned on.
 Nuclear repulsion after empirical dispersion term =     4388.3172671227 Hartrees.
 One-electron integrals computed using PRISM.
 PrsmSu:  requested number of processors reduced to:  21 ShMem   1 Linda.
   1 Symmetry operations used in ECPInt.
 ECPInt:  NShTT=   57630 NPrTT=  202514 LenC2=   49237 LenP2D=  114383.
 LDataN:  DoStor=T MaxTD1= 4 Len=   56
 Number of processors reduced to   9 by ecpmxn.
 NBasis=   705 RedAO= T EigKep=  2.80D-04  NBF=   705
 NBsUse=   705 1.00D-06 EigRej= -1.00D+00 NBFU=   705
 Initial guess from the checkpoint file:  "elim_ts_optts_b.chk"
 B after Tr=     0.000000    0.000000   -0.000000
         Rot=    1.000000    0.000000   -0.000000    0.000000 Ang=   0.00 deg.
 Requested convergence on RMS density matrix=1.00D-08 within 128 cycles.
 Requested convergence on MAX density matrix=1.00D-06.
 Requested convergence on             energy=1.00D-06.
 No special actions if energy rises.
 SCF Done:  E(RPBE1PBE) =  -1592.30491547     A.U. after    1 cycles
            NFock=  1  Conv=0.75D-08     -V/T= 2.0103
 DoSCS=F DFT=T ScalE2(SS,OS)=  1.000000  1.000000
 Range of M.O.s used for correlation:     1   705
 NBasis=   705 NAE=   133 NBE=   133 NFC=     0 NFV=     0
 NROrb=    705 NOA=   133 NOB=   133 NVA=   572 NVB=   572
 PrsmSu:  requested number of processors reduced to:  17 ShMem   1 Linda.
 PrsmSu:  requested number of processors reduced to:   1 ShMem   1 Linda.
   1 Symmetry operations used in ECPInt.
 ECPInt:  NShTT=   57630 NPrTT=  202514 LenC2=   49237 LenP2D=  114383.
 LDataN:  DoStor=T MaxTD1= 5 Len=  102
 Number of processors reduced to   1 by ecpmxn.
 Symmetrizing basis deriv contribution to polar:
 IMax=3 JMax=2 DiffMx= 0.00D+00
 G2DrvN: will do     1 centers at a time, making   79 passes.
 Calling FoFCou, ICntrl=  3107 FMM=T I1Cent=   0 AccDes= 0.00D+00.
 Calling FoFCou, ICntrl=  3107 FMM=T I1Cent=   0 AccDes= 0.00D+00.
 CoulSu:  requested number of processors reduced to:  23 ShMem   1 Linda.
 Calling FoFCou, ICntrl=  3107 FMM=T I1Cent=   0 AccDes= 0.00D+00.
 CoulSu:  requested number of processors reduced to:  23 ShMem   1 Linda.
 Calling FoFCou, ICntrl=  3107 FMM=T I1Cent=   0 AccDes= 0.00D+00.
 CoulSu:  requested number of processors reduced to:  23 ShMem   1 Linda.
 Calling FoFCou, ICntrl=  3107 FMM=T I1Cent=   0 AccDes= 0.00D+00.
 CoulSu:  requested number of processors reduced to:  23 ShMem   1 Linda.
 Calling FoFCou, ICntrl=  3107 FMM=T I1Cent=   0 AccDes= 0.00D+00.
 CoulSu:  requested number of processors reduced to:  23 ShMem   1 Linda.
 Calling FoFCou, ICntrl=  3107 FMM=T I1Cent=   0 AccDes= 0.00D+00.
 CoulSu:  requested number of processors reduced to:  23 ShMem   1 Linda.
 Calling FoFCou, ICntrl=  3107 FMM=T I1Cent=   0 AccDes= 0.00D+00.
 CoulSu:  requested number of processors reduced to:  23 ShMem   1 Linda.
 Calling FoFCou, ICntrl=  3107 FMM=T I1Cent=   0 AccDes= 0.00D+00.
 CoulSu:  requested number of processors reduced to:  23 ShMem   1 Linda.
 Calling FoFCou, ICntrl=  3107 FMM=T I1Cent=   0 AccDes= 0.00D+00.
 CoulSu:  requested number of processors reduced to:  23 ShMem   1 Linda.
 Calling FoFCou, ICntrl=  3107 FMM=T I1Cent=   0 AccDes= 0.00D+00.
 CoulSu:  requested number of processors reduced to:  23 ShMem   1 Linda.
 Calling FoFCou, ICntrl=  3107 FMM=T I1Cent=   0 AccDes= 0.00D+00.
 CoulSu:  requested number of processors reduced to:  23 ShMem   1 Linda.
 Calling FoFCou, ICntrl=  3107 FMM=T I1Cent=   0 AccDes= 0.00D+00.
 CoulSu:  requested number of processors reduced to:  23 ShMem   1 Linda.
 Calling FoFCou, ICntrl=  3107 FMM=T I1Cent=   0 AccDes= 0.00D+00.
 CoulSu:  requested number of processors reduced to:  23 ShMem   1 Linda.
 Calling FoFCou, ICntrl=  3107 FMM=T I1Cent=   0 AccDes= 0.00D+00.
 CoulSu:  requested number of processors reduced to:  23 ShMem   1 Linda.
 Calling FoFCou, ICntrl=  3107 FMM=T I1Cent=   0 AccDes= 0.00D+00.
 CoulSu:  requested number of processors reduced to:  23 ShMem   1 Linda.
 Calling FoFCou, ICntrl=  3107 FMM=T I1Cent=   0 AccDes= 0.00D+00.
 CoulSu:  requested number of processors reduced to:  23 ShMem   1 Linda.
 Calling FoFCou, ICntrl=  3107 FMM=T I1Cent=   0 AccDes= 0.00D+00.
 CoulSu:  requested number of processors reduced to:  23 ShMem   1 Linda.
 Calling FoFCou, ICntrl=  3107 FMM=T I1Cent=   0 AccDes= 0.00D+00.
 CoulSu:  requested number of processors reduced to:  23 ShMem   1 Linda.
 Calling FoFCou, ICntrl=  3107 FMM=T I1Cent=   0 AccDes= 0.00D+00.
 CoulSu:  requested number of processors reduced to:  23 ShMem   1 Linda.
 Calling FoFCou, ICntrl=  3107 FMM=T I1Cent=   0 AccDes= 0.00D+00.
 CoulSu:  requested number of processors reduced to:  23 ShMem   1 Linda.
 Calling FoFCou, ICntrl=  3107 FMM=T I1Cent=   0 AccDes= 0.00D+00.
 CoulSu:  requested number of processors reduced to:  23 ShMem   1 Linda.
 Calling FoFCou, ICntrl=  3107 FMM=T I1Cent=   0 AccDes= 0.00D+00.
 CoulSu:  requested number of processors reduced to:  23 ShMem   1 Linda.
 Calling FoFCou, ICntrl=  3107 FMM=T I1Cent=   0 AccDes= 0.00D+00.
 CoulSu:  requested number of processors reduced to:  23 ShMem   1 Linda.
 Calling FoFCou, ICntrl=  3107 FMM=T I1Cent=   0 AccDes= 0.00D+00.
 CoulSu:  requested number of processors reduced to:  23 ShMem   1 Linda.
 Calling FoFCou, ICntrl=  3107 FMM=T I1Cent=   0 AccDes= 0.00D+00.
 CoulSu:  requested number of processors reduced to:  23 ShMem   1 Linda.
 Calling FoFCou, ICntrl=  3107 FMM=T I1Cent=   0 AccDes= 0.00D+00.
 CoulSu:  requested number of processors reduced to:  23 ShMem   1 Linda.
 Calling FoFCou, ICntrl=  3107 FMM=T I1Cent=   0 AccDes= 0.00D+00.
 CoulSu:  requested number of processors reduced to:  23 ShMem   1 Linda.
 Calling FoFCou, ICntrl=  3107 FMM=T I1Cent=   0 AccDes= 0.00D+00.
 CoulSu:  requested number of processors reduced to:  23 ShMem   1 Linda.
 Calling FoFCou, ICntrl=  3107 FMM=T I1Cent=   0 AccDes= 0.00D+00.
 CoulSu:  requested number of processors reduced to:  23 ShMem   1 Linda.
 Calling FoFCou, ICntrl=  3107 FMM=T I1Cent=   0 AccDes= 0.00D+00.
 CoulSu:  requested number of processors reduced to:  23 ShMem   1 Linda.
 Calling FoFCou, ICntrl=  3107 FMM=T I1Cent=   0 AccDes= 0.00D+00.
 CoulSu:  requested number of processors reduced to:  23 ShMem   1 Linda.
 Calling FoFCou, ICntrl=  3107 FMM=T I1Cent=   0 AccDes= 0.00D+00.
 CoulSu:  requested number of processors reduced to:  23 ShMem   1 Linda.
 Calling FoFCou, ICntrl=  3107 FMM=T I1Cent=   0 AccDes= 0.00D+00.
 CoulSu:  requested number of processors reduced to:  23 ShMem   1 Linda.
 Calling FoFCou, ICntrl=  3107 FMM=T I1Cent=   0 AccDes= 0.00D+00.
 CoulSu:  requested number of processors reduced to:  23 ShMem   1 Linda.
 Calling FoFCou, ICntrl=  3107 FMM=T I1Cent=   0 AccDes= 0.00D+00.
 CoulSu:  requested number of processors reduced to:  23 ShMem   1 Linda.
 Calling FoFCou, ICntrl=  3107 FMM=T I1Cent=   0 AccDes= 0.00D+00.
 CoulSu:  requested number of processors reduced to:  23 ShMem   1 Linda.
 Calling FoFCou, ICntrl=  3107 FMM=T I1Cent=   0 AccDes= 0.00D+00.
 CoulSu:  requested number of processors reduced to:  23 ShMem   1 Linda.
 Calling FoFCou, ICntrl=  3107 FMM=T I1Cent=   0 AccDes= 0.00D+00.
 CoulSu:  requested number of processors reduced to:  23 ShMem   1 Linda.
 Calling FoFCou, ICntrl=  3107 FMM=T I1Cent=   0 AccDes= 0.00D+00.
 CoulSu:  requested number of processors reduced to:  23 ShMem   1 Linda.
 Calling FoFCou, ICntrl=  3107 FMM=T I1Cent=   0 AccDes= 0.00D+00.
 CoulSu:  requested number of processors reduced to:  23 ShMem   1 Linda.
 Calling FoFCou, ICntrl=  3107 FMM=T I1Cent=   0 AccDes= 0.00D+00.
 CoulSu:  requested number of processors reduced to:  23 ShMem   1 Linda.
 Calling FoFCou, ICntrl=  3107 FMM=T I1Cent=   0 AccDes= 0.00D+00.
 CoulSu:  requested number of processors reduced to:  23 ShMem   1 Linda.
 Calling FoFCou, ICntrl=  3107 FMM=T I1Cent=   0 AccDes= 0.00D+00.
 CoulSu:  requested number of processors reduced to:  23 ShMem   1 Linda.
 Calling FoFCou, ICntrl=  3107 FMM=T I1Cent=   0 AccDes= 0.00D+00.
 CoulSu:  requested number of processors reduced to:  23 ShMem   1 Linda.
 Calling FoFCou, ICntrl=  3107 FMM=T I1Cent=   0 AccDes= 0.00D+00.
 CoulSu:  requested number of processors reduced to:  23 ShMem   1 Linda.
 Calling FoFCou, ICntrl=  3107 FMM=T I1Cent=   0 AccDes= 0.00D+00.
 CoulSu:  requested number of processors reduced to:  23 ShMem   1 Linda.
 Calling FoFCou, ICntrl=  3107 FMM=T I1Cent=   0 AccDes= 0.00D+00.
 CoulSu:  requested number of processors reduced to:  23 ShMem   1 Linda.
 Calling FoFCou, ICntrl=  3107 FMM=T I1Cent=   0 AccDes= 0.00D+00.
 CoulSu:  requested number of processors reduced to:  23 ShMem   1 Linda.
 Calling FoFCou, ICntrl=  3107 FMM=T I1Cent=   0 AccDes= 0.00D+00.
 CoulSu:  requested number of processors reduced to:  23 ShMem   1 Linda.
 Calling FoFCou, ICntrl=  3107 FMM=T I1Cent=   0 AccDes= 0.00D+00.
 CoulSu:  requested number of processors reduced to:  23 ShMem   1 Linda.
 Calling FoFCou, ICntrl=  3107 FMM=T I1Cent=   0 AccDes= 0.00D+00.
 CoulSu:  requested number of processors reduced to:  23 ShMem   1 Linda.
 Calling FoFCou, ICntrl=  3107 FMM=T I1Cent=   0 AccDes= 0.00D+00.
 CoulSu:  requested number of processors reduced to:  23 ShMem   1 Linda.
 Calling FoFCou, ICntrl=  3107 FMM=T I1Cent=   0 AccDes= 0.00D+00.
 CoulSu:  requested number of processors reduced to:  23 ShMem   1 Linda.
 Calling FoFCou, ICntrl=  3107 FMM=T I1Cent=   0 AccDes= 0.00D+00.
 CoulSu:  requested number of processors reduced to:  23 ShMem   1 Linda.
 Calling FoFCou, ICntrl=  3107 FMM=T I1Cent=   0 AccDes= 0.00D+00.
 CoulSu:  requested number of processors reduced to:  23 ShMem   1 Linda.
 Calling FoFCou, ICntrl=  3107 FMM=T I1Cent=   0 AccDes= 0.00D+00.
 CoulSu:  requested number of processors reduced to:  23 ShMem   1 Linda.
 Calling FoFCou, ICntrl=  3107 FMM=T I1Cent=   0 AccDes= 0.00D+00.
 CoulSu:  requested number of processors reduced to:  23 ShMem   1 Linda.
 Calling FoFCou, ICntrl=  3107 FMM=T I1Cent=   0 AccDes= 0.00D+00.
 CoulSu:  requested number of processors reduced to:  23 ShMem   1 Linda.
 Calling FoFCou, ICntrl=  3107 FMM=T I1Cent=   0 AccDes= 0.00D+00.
 CoulSu:  requested number of processors reduced to:  23 ShMem   1 Linda.
 Calling FoFCou, ICntrl=  3107 FMM=T I1Cent=   0 AccDes= 0.00D+00.
 CoulSu:  requested number of processors reduced to:  23 ShMem   1 Linda.
 Calling FoFCou, ICntrl=  3107 FMM=T I1Cent=   0 AccDes= 0.00D+00.
 CoulSu:  requested number of processors reduced to:  23 ShMem   1 Linda.
 Calling FoFCou, ICntrl=  3107 FMM=T I1Cent=   0 AccDes= 0.00D+00.
 CoulSu:  requested number of processors reduced to:  23 ShMem   1 Linda.
 Calling FoFCou, ICntrl=  3107 FMM=T I1Cent=   0 AccDes= 0.00D+00.
 CoulSu:  requested number of processors reduced to:  23 ShMem   1 Linda.
 Calling FoFCou, ICntrl=  3107 FMM=T I1Cent=   0 AccDes= 0.00D+00.
 CoulSu:  requested number of processors reduced to:  23 ShMem   1 Linda.
 Calling FoFCou, ICntrl=  3107 FMM=T I1Cent=   0 AccDes= 0.00D+00.
 CoulSu:  requested number of processors reduced to:  23 ShMem   1 Linda.
 Calling FoFCou, ICntrl=  3107 FMM=T I1Cent=   0 AccDes= 0.00D+00.
 CoulSu:  requested number of processors reduced to:  23 ShMem   1 Linda.
 Calling FoFCou, ICntrl=  3107 FMM=T I1Cent=   0 AccDes= 0.00D+00.
 CoulSu:  requested number of processors reduced to:  23 ShMem   1 Linda.
 Calling FoFCou, ICntrl=  3107 FMM=T I1Cent=   0 AccDes= 0.00D+00.
 CoulSu:  requested number of processors reduced to:  23 ShMem   1 Linda.
 Calling FoFCou, ICntrl=  3107 FMM=T I1Cent=   0 AccDes= 0.00D+00.
 CoulSu:  requested number of processors reduced to:  23 ShMem   1 Linda.
 Calling FoFCou, ICntrl=  3107 FMM=T I1Cent=   0 AccDes= 0.00D+00.
 CoulSu:  requested number of processors reduced to:  23 ShMem   1 Linda.
 Calling FoFCou, ICntrl=  3107 FMM=T I1Cent=   0 AccDes= 0.00D+00.
 CoulSu:  requested number of processors reduced to:  23 ShMem   1 Linda.
 Calling FoFCou, ICntrl=  3107 FMM=T I1Cent=   0 AccDes= 0.00D+00.
 CoulSu:  requested number of processors reduced to:  23 ShMem   1 Linda.
 Calling FoFCou, ICntrl=  3107 FMM=T I1Cent=   0 AccDes= 0.00D+00.
 CoulSu:  requested number of processors reduced to:  23 ShMem   1 Linda.
 Calling FoFCou, ICntrl=  3107 FMM=T I1Cent=   0 AccDes= 0.00D+00.
 CoulSu:  requested number of processors reduced to:  23 ShMem   1 Linda.
 Calling FoFCou, ICntrl=  3107 FMM=T I1Cent=   0 AccDes= 0.00D+00.
 CoulSu:  requested number of processors reduced to:  23 ShMem   1 Linda.
 Calling FoFCou, ICntrl=  3107 FMM=T I1Cent=   0 AccDes= 0.00D+00.
 CoulSu:  requested number of processors reduced to:  23 ShMem   1 Linda.
 Calling FoFCou, ICntrl=  3107 FMM=T I1Cent=   0 AccDes= 0.00D+00.
 CoulSu:  requested number of processors reduced to:  23 ShMem   1 Linda.
 Calling FoFCou, ICntrl=  3107 FMM=T I1Cent=   0 AccDes= 0.00D+00.
 CoulSu:  requested number of processors reduced to:  23 ShMem   1 Linda.
 End of G2Drv F.D. properties file   721 does not exist.
 End of G2Drv F.D. properties file   722 does not exist.
 End of G2Drv F.D. properties file   788 does not exist.
          IDoAtm=11111111111111111111111111111111111111111111111111
          IDoAtm=1111111111111111111111111111
          Differentiating once with respect to electric field.
                with respect to dipole field.
          Differentiating once with respect to nuclear coordinates.
 CalDSu exits because no D1Ps are significant.
          There are   237 degrees of freedom in the 1st order CPHF.  IDoFFX=6 NUNeed=     3.
    237 vectors produced by pass  0 Test12= 7.61D-14 1.00D-09 XBig12= 2.34D+02 4.18D+00.
 AX will form     3 AO Fock derivatives at one time.
    237 vectors produced by pass  1 Test12= 7.61D-14 1.00D-09 XBig12= 4.45D+01 1.42D+00.
    235 vectors produced by pass  2 Test12= 7.61D-14 1.00D-09 XBig12= 3.39D-01 7.28D-02.
