 Entering Gaussian System, Link 0=/opt/g16avx/g16
 Input=int_2_w.gjf
 Output=int_2_w.log
 Initial command:
 /opt/g16avx/l1.exe "/home/scratch/Gau-19579.inp" -scrdir="/home/scratch/"
 Entering Link 1 = /opt/g16avx/l1.exe PID=     19580.
  
 Copyright (c) 1988,1990,1992,1993,1995,1998,2003,2009,2016,
            Gaussian, Inc.  All Rights Reserved.
  
 This is part of the Gaussian(R) 16 program.  It is based on
 the Gaussian(R) 09 system (copyright 2009, Gaussian, Inc.),
 the Gaussian(R) 03 system (copyright 2003, Gaussian, Inc.),
 the Gaussian(R) 98 system (copyright 1998, Gaussian, Inc.),
 the Gaussian(R) 94 system (copyright 1995, Gaussian, Inc.),
 the Gaussian 92(TM) system (copyright 1992, Gaussian, Inc.),
 the Gaussian 90(TM) system (copyright 1990, Gaussian, Inc.),
 the Gaussian 88(TM) system (copyright 1988, Gaussian, Inc.),
 the Gaussian 86(TM) system (copyright 1986, Carnegie Mellon
 University), and the Gaussian 82(TM) system (copyright 1983,
 Carnegie Mellon University). Gaussian is a federally registered
 trademark of Gaussian, Inc.
  
 This software contains proprietary and confidential information,
 including trade secrets, belonging to Gaussian, Inc.
  
 This software is provided under written license and may be
 used, copied, transmitted, or stored only in accord with that
 written license.
  
 The following legend is applicable only to US Government
 contracts under FAR:
  
                    RESTRICTED RIGHTS LEGEND
  
 Use, reproduction and disclosure by the US Government is
 subject to restrictions as set forth in subparagraphs (a)
 and (c) of the Commercial Computer Software - Restricted
 Rights clause in FAR 52.227-19.
  
 Gaussian, Inc.
 340 Quinnipiac St., Bldg. 40, Wallingford CT 06492
  
  
 ---------------------------------------------------------------
 Warning -- This program may not be used in any manner that
 competes with the business of Gaussian, Inc. or will provide
 assistance to any competitor of Gaussian, Inc.  The licensee
 of this program is prohibited from giving any competitor of
 Gaussian, Inc. access to this program.  By using this program,
 the user acknowledges that Gaussian, Inc. is engaged in the
 business of creating and licensing software in the field of
 computational chemistry and represents and warrants to the
 licensee that it is not a competitor of Gaussian, Inc. and that
 it will not use this program in any manner prohibited above.
 ---------------------------------------------------------------
  

 Cite this work as:
 Gaussian 16, Revision A.03,
 M. J. Frisch, G. W. Trucks, H. B. Schlegel, G. E. Scuseria, 
 M. A. Robb, J. R. Cheeseman, G. Scalmani, V. Barone, 
 G. A. Petersson, H. Nakatsuji, X. Li, M. Caricato, A. V. Marenich, 
 J. Bloino, B. G. Janesko, R. Gomperts, B. Mennucci, H. P. Hratchian, 
 J. V. Ortiz, A. F. Izmaylov, J. L. Sonnenberg, D. Williams-Young, 
 F. Ding, F. Lipparini, F. Egidi, J. Goings, B. Peng, A. Petrone, 
 T. Henderson, D. Ranasinghe, V. G. Zakrzewski, J. Gao, N. Rega, 
 G. Zheng, W. Liang, M. Hada, M. Ehara, K. Toyota, R. Fukuda, 
 J. Hasegawa, M. Ishida, T. Nakajima, Y. Honda, O. Kitao, H. Nakai, 
 T. Vreven, K. Throssell, J. A. Montgomery, Jr., J. E. Peralta, 
 F. Ogliaro, M. J. Bearpark, J. J. Heyd, E. N. Brothers, K. N. Kudin, 
 V. N. Staroverov, T. A. Keith, R. Kobayashi, J. Normand, 
 K. Raghavachari, A. P. Rendell, J. C. Burant, S. S. Iyengar, 
 J. Tomasi, M. Cossi, J. M. Millam, M. Klene, C. Adamo, R. Cammi, 
 J. W. Ochterski, R. L. Martin, K. Morokuma, O. Farkas, 
 J. B. Foresman, and D. J. Fox, Gaussian, Inc., Wallingford CT, 2016.
 
 ******************************************
 Gaussian 16:  ES64L-G16RevA.03 25-Dec-2016
                16-Mar-2021 
 ******************************************
 %chk=int_2_w.chk
 %nprocshared=20
 Will use up to   20 processors via shared memory.
 %mem=46GB
 ----------------------------------------------------------------------
 #p opt PBE1PBE/DEF2SVP empiricaldispersion=gd3bj scrf=(SMD, solvent=Wa
 ter) freq=noraman
 ----------------------------------------------------------------------
 1/18=20,19=15,26=3,38=1/1,3;
 2/9=110,12=2,17=6,18=5,40=1/2;
 3/5=43,7=101,11=2,25=1,30=1,70=32201,71=1,72=1,74=-13,124=41/1,2,3;
 4//1;
 5/5=2,38=5,53=1/2;
 6/7=2,8=2,9=2,10=2,28=1/1;
 7//1,2,3,16;
 1/18=20,19=15,26=3/3(2);
 2/9=110/2;
 99//99;
 2/9=110/2;
 3/5=43,7=101,11=2,25=1,30=1,70=32205,71=1,72=1,74=-13,124=41/1,2,3;
 4/5=5,16=3,69=1/1;
 5/5=2,38=5,53=1/2;
 7//1,2,3,16;
 1/18=20,19=15,26=3/3(-5);
 2/9=110/2;
 6/7=2,8=2,9=2,10=2,19=2,28=1/1;
 99/9=1/99;
 Leave Link    1 at Tue Mar 16 05:16:02 2021, MaxMem=  6174015488 cpu:               3.3 elap:               0.2
 (Enter /opt/g16avx/l101.exe)
 ----
 Name
 ----
 Symbolic Z-matrix:
 Charge =  1 Multiplicity = 1
 N                     0.48982  -3.11424   0.04092 
 C                    -0.30835  -2.80504  -1.13651 
 C                    -0.24004  -2.79311   1.25767 
 H                     0.23719  -3.12279  -2.03926 
 H                    -1.24558  -3.38037  -1.09607 
 C                    -0.61141  -1.30225  -1.19727 
 H                     0.35691  -3.10075   2.13095 
 H                    -1.17778  -3.368     1.27739 
 C                    -0.54035  -1.28683   1.32914 
 C                     0.71699  -0.54868  -1.20119 
 C                    -1.38962  -0.91069   0.0883 
 C                     0.7983   -0.55029   1.26494 
 H                     1.31815  -0.79373  -2.08877 
 H                     0.56977   0.53865  -1.16936 
 N                     1.5368   -0.9295    0.00724 
 H                    -2.29611  -1.53407   0.12819 
 H                     1.44113  -0.82082   2.11498 
 H                     0.69253   0.54248   1.26274 
 N                    -1.79694   0.46655   0.10063 
 H                    -1.13792   1.14205   0.46408 
 C                    -1.38255  -0.94769  -2.45732 
 H                    -1.6282    0.12358  -2.47805 
 H                    -0.79642  -1.18992  -3.35667 
 H                    -2.32241  -1.5174   -2.50354 
 C                    -1.24914  -0.93969   2.62852 
 H                    -1.44415   0.13878   2.71005 
 H                    -2.21567  -1.46271   2.68007 
 H                    -0.64671  -1.24696   3.49652 
 C                     1.73779  -2.46376   0.00148 
 H                     2.29644  -2.69048  -0.91406 
 H                     2.35441  -2.69056   0.87939 
 C                     2.86992  -0.23453  -0.03997 
 O                     3.87538  -0.87289  -0.08003 
 O                     2.65769   1.03782  -0.02956 
 C                     3.76204   2.04097  -0.08358 
 C                     4.63408   1.85951   1.1448 
 H                     4.03151   1.93122   2.06174 
 H                     5.15972   0.89605   1.13059 
 H                     5.38551   2.66143   1.16485 
 C                     4.5156    1.85077  -1.38684 
 H                     5.04178   0.88791  -1.41493 
 H                     3.82936   1.91493  -2.24357 
 H                     5.2606    2.65305  -1.48354 
 C                     3.00711   3.35445  -0.05315 
 H                     2.33272   3.43508  -0.91746 
 H                     2.41577   3.44154   0.86936 
 H                     3.72275   4.18715  -0.08936 
 C                    -3.11838   0.87764  -0.39504 
 H                    -3.44225   0.18406  -1.18446 
 H                    -3.85667   0.77912   0.41388 
 C                    -3.15346   2.31749  -0.94019 
 C                    -3.45447   3.4016   -0.09849 
 C                    -2.88537   2.58444  -2.2934 
 C                    -3.48629   4.70492  -0.59161 
 C                    -2.91704   3.88754  -2.78711 
 C                    -3.21769   4.95412  -1.93844 
 H                    -3.66493   3.21892   0.9507 
 H                    -2.65042   1.7622   -2.96212 
 H                    -3.72145   5.52735   0.07796 
 H                    -2.70636   4.06981  -3.83706 
 H                    -3.24243   5.9695   -2.32288 
 
 ITRead=  0  0  0  0  0  0  0  0  0  0  0  0  0  0  0  0  0  0  0  0
 ITRead=  0  0  0  0  0  0  0  0  0  0  0  0  0  0  0  0  0  0  0  0
 ITRead=  0  0  0  0  0  0  0  0  0  0  0  0  0  0  0  0  0  0  0  0
 ITRead=  0
 MicOpt= -1 -1 -1 -1 -1 -1 -1 -1 -1 -1 -1 -1 -1 -1 -1 -1 -1 -1 -1 -1
 MicOpt= -1 -1 -1 -1 -1 -1 -1 -1 -1 -1 -1 -1 -1 -1 -1 -1 -1 -1 -1 -1
 MicOpt= -1 -1 -1 -1 -1 -1 -1 -1 -1 -1 -1 -1 -1 -1 -1 -1 -1 -1 -1 -1
 MicOpt= -1
 NAtoms=     61 NQM=       61 NQMF=       0 NMMI=      0 NMMIF=      0
                NMic=       0 NMicF=      0.
                    Isotopes and Nuclear Properties:
 (Nuclear quadrupole moments (NQMom) in fm**2, nuclear magnetic moments (NMagM)
  in nuclear magnetons)

  Atom         1           2           3           4           5           6           7           8           9          10
 IAtWgt=          14          12          12           1           1          12           1           1          12          12
 AtmWgt=  14.0030740  12.0000000  12.0000000   1.0078250   1.0078250  12.0000000   1.0078250   1.0078250  12.0000000  12.0000000
 NucSpn=           2           0           0           1           1           0           1           1           0           0
 AtZEff=  -0.0000000  -0.0000000  -0.0000000  -0.0000000  -0.0000000  -0.0000000  -0.0000000  -0.0000000  -0.0000000  -0.0000000
 NQMom=    2.0440000   0.0000000   0.0000000   0.0000000   0.0000000   0.0000000   0.0000000   0.0000000   0.0000000   0.0000000
 NMagM=    0.4037610   0.0000000   0.0000000   2.7928460   2.7928460   0.0000000   2.7928460   2.7928460   0.0000000   0.0000000
 AtZNuc=   7.0000000   6.0000000   6.0000000   1.0000000   1.0000000   6.0000000   1.0000000   1.0000000   6.0000000   6.0000000

  Atom        11          12          13          14          15          16          17          18          19          20
 IAtWgt=          12          12           1           1          14           1           1           1          14           1
 AtmWgt=  12.0000000  12.0000000   1.0078250   1.0078250  14.0030740   1.0078250   1.0078250   1.0078250  14.0030740   1.0078250
 NucSpn=           0           0           1           1           2           1           1           1           2           1
 AtZEff=  -0.0000000  -0.0000000  -0.0000000  -0.0000000  -0.0000000  -0.0000000  -0.0000000  -0.0000000  -0.0000000  -0.0000000
 NQMom=    0.0000000   0.0000000   0.0000000   0.0000000   2.0440000   0.0000000   0.0000000   0.0000000   2.0440000   0.0000000
 NMagM=    0.0000000   0.0000000   2.7928460   2.7928460   0.4037610   2.7928460   2.7928460   2.7928460   0.4037610   2.7928460
 AtZNuc=   6.0000000   6.0000000   1.0000000   1.0000000   7.0000000   1.0000000   1.0000000   1.0000000   7.0000000   1.0000000

  Atom        21          22          23          24          25          26          27          28          29          30
 IAtWgt=          12           1           1           1          12           1           1           1          12           1
 AtmWgt=  12.0000000   1.0078250   1.0078250   1.0078250  12.0000000   1.0078250   1.0078250   1.0078250  12.0000000   1.0078250
 NucSpn=           0           1           1           1           0           1           1           1           0           1
 AtZEff=  -0.0000000  -0.0000000  -0.0000000  -0.0000000  -0.0000000  -0.0000000  -0.0000000  -0.0000000  -0.0000000  -0.0000000
 NQMom=    0.0000000   0.0000000   0.0000000   0.0000000   0.0000000   0.0000000   0.0000000   0.0000000   0.0000000   0.0000000
 NMagM=    0.0000000   2.7928460   2.7928460   2.7928460   0.0000000   2.7928460   2.7928460   2.7928460   0.0000000   2.7928460
 AtZNuc=   6.0000000   1.0000000   1.0000000   1.0000000   6.0000000   1.0000000   1.0000000   1.0000000   6.0000000   1.0000000

  Atom        31          32          33          34          35          36          37          38          39          40
 IAtWgt=           1          12          16          16          12          12           1           1           1          12
 AtmWgt=   1.0078250  12.0000000  15.9949146  15.9949146  12.0000000  12.0000000   1.0078250   1.0078250   1.0078250  12.0000000
 NucSpn=           1           0           0           0           0           0           1           1           1           0
 AtZEff=  -0.0000000  -0.0000000  -0.0000000  -0.0000000  -0.0000000  -0.0000000  -0.0000000  -0.0000000  -0.0000000  -0.0000000
 NQMom=    0.0000000   0.0000000   0.0000000   0.0000000   0.0000000   0.0000000   0.0000000   0.0000000   0.0000000   0.0000000
 NMagM=    2.7928460   0.0000000   0.0000000   0.0000000   0.0000000   0.0000000   2.7928460   2.7928460   2.7928460   0.0000000
 AtZNuc=   1.0000000   6.0000000   8.0000000   8.0000000   6.0000000   6.0000000   1.0000000   1.0000000   1.0000000   6.0000000

  Atom        41          42          43          44          45          46          47          48          49          50
 IAtWgt=           1           1           1          12           1           1           1          12           1           1
 AtmWgt=   1.0078250   1.0078250   1.0078250  12.0000000   1.0078250   1.0078250   1.0078250  12.0000000   1.0078250   1.0078250
 NucSpn=           1           1           1           0           1           1           1           0           1           1
 AtZEff=  -0.0000000  -0.0000000  -0.0000000  -0.0000000  -0.0000000  -0.0000000  -0.0000000  -0.0000000  -0.0000000  -0.0000000
 NQMom=    0.0000000   0.0000000   0.0000000   0.0000000   0.0000000   0.0000000   0.0000000   0.0000000   0.0000000   0.0000000
 NMagM=    2.7928460   2.7928460   2.7928460   0.0000000   2.7928460   2.7928460   2.7928460   0.0000000   2.7928460   2.7928460
 AtZNuc=   1.0000000   1.0000000   1.0000000   6.0000000   1.0000000   1.0000000   1.0000000   6.0000000   1.0000000   1.0000000

  Atom        51          52          53          54          55          56          57          58          59          60
 IAtWgt=          12          12          12          12          12          12           1           1           1           1
 AtmWgt=  12.0000000  12.0000000  12.0000000  12.0000000  12.0000000  12.0000000   1.0078250   1.0078250   1.0078250   1.0078250
 NucSpn=           0           0           0           0           0           0           1           1           1           1
 AtZEff=  -0.0000000  -0.0000000  -0.0000000  -0.0000000  -0.0000000  -0.0000000  -0.0000000  -0.0000000  -0.0000000  -0.0000000
 NQMom=    0.0000000   0.0000000   0.0000000   0.0000000   0.0000000   0.0000000   0.0000000   0.0000000   0.0000000   0.0000000
 NMagM=    0.0000000   0.0000000   0.0000000   0.0000000   0.0000000   0.0000000   2.7928460   2.7928460   2.7928460   2.7928460
 AtZNuc=   6.0000000   6.0000000   6.0000000   6.0000000   6.0000000   6.0000000   1.0000000   1.0000000   1.0000000   1.0000000

  Atom        61
 IAtWgt=           1
 AtmWgt=   1.0078250
 NucSpn=           1
 AtZEff=  -0.0000000
 NQMom=    0.0000000
 NMagM=    2.7928460
 AtZNuc=   1.0000000
 Leave Link  101 at Tue Mar 16 05:16:02 2021, MaxMem=  6174015488 cpu:              10.5 elap:               0.7
 (Enter /opt/g16avx/l103.exe)

 GradGradGradGradGradGradGradGradGradGradGradGradGradGradGradGradGradGrad
 Berny optimization.
 Initialization pass.
                           ----------------------------
                           !    Initial Parameters    !
                           ! (Angstroms and Degrees)  !
 --------------------------                            --------------------------
 ! Name  Definition              Value          Derivative Info.                !
 --------------------------------------------------------------------------------
 ! R1    R(1,2)                  1.4557         estimate D2E/DX2                !
 ! R2    R(1,3)                  1.4547         estimate D2E/DX2                !
 ! R3    R(1,29)                 1.4079         estimate D2E/DX2                !
 ! R4    R(2,4)                  1.1016         estimate D2E/DX2                !
 ! R5    R(2,5)                  1.1005         estimate D2E/DX2                !
 ! R6    R(2,6)                  1.5342         estimate D2E/DX2                !
 ! R7    R(3,7)                  1.1016         estimate D2E/DX2                !
 ! R8    R(3,8)                  1.1001         estimate D2E/DX2                !
 ! R9    R(3,9)                  1.5376         estimate D2E/DX2                !
 ! R10   R(6,10)                 1.5273         estimate D2E/DX2                !
 ! R11   R(6,11)                 1.5529         estimate D2E/DX2                !
 ! R12   R(6,21)                 1.5192         estimate D2E/DX2                !
 ! R13   R(9,11)                 1.55           estimate D2E/DX2                !
 ! R14   R(9,12)                 1.5292         estimate D2E/DX2                !
 ! R15   R(9,25)                 1.5203         estimate D2E/DX2                !
 ! R16   R(10,13)                1.0996         estimate D2E/DX2                !
 ! R17   R(10,14)                1.0977         estimate D2E/DX2                !
 ! R18   R(10,15)                1.5091         estimate D2E/DX2                !
 ! R19   R(11,16)                1.1009         estimate D2E/DX2                !
 ! R20   R(11,19)                1.4363         estimate D2E/DX2                !
 ! R21   R(12,15)                1.507          estimate D2E/DX2                !
 ! R22   R(12,17)                1.0995         estimate D2E/DX2                !
 ! R23   R(12,18)                1.0979         estimate D2E/DX2                !
 ! R24   R(15,29)                1.5474         estimate D2E/DX2                !
 ! R25   R(15,32)                1.5041         estimate D2E/DX2                !
 ! R26   R(19,20)                1.0113         estimate D2E/DX2                !
 ! R27   R(19,48)                1.47           estimate D2E/DX2                !
 ! R28   R(21,22)                1.0993         estimate D2E/DX2                !
 ! R29   R(21,23)                1.1005         estimate D2E/DX2                !
 ! R30   R(21,24)                1.1            estimate D2E/DX2                !
 ! R31   R(25,26)                1.099          estimate D2E/DX2                !
 ! R32   R(25,27)                1.1002         estimate D2E/DX2                !
 ! R33   R(25,28)                1.1003         estimate D2E/DX2                !
 ! R34   R(29,30)                1.0962         estimate D2E/DX2                !
 ! R35   R(29,31)                1.0965         estimate D2E/DX2                !
 ! R36   R(32,33)                1.1917         estimate D2E/DX2                !
 ! R37   R(32,34)                1.29           estimate D2E/DX2                !
 ! R38   R(34,35)                1.4929         estimate D2E/DX2                !
 ! R39   R(35,36)                1.5173         estimate D2E/DX2                !
 ! R40   R(35,40)                1.5174         estimate D2E/DX2                !
 ! R41   R(35,44)                1.5153         estimate D2E/DX2                !
 ! R42   R(36,37)                1.0996         estimate D2E/DX2                !
 ! R43   R(36,38)                1.0976         estimate D2E/DX2                !
 ! R44   R(36,39)                1.0991         estimate D2E/DX2                !
 ! R45   R(40,41)                1.0976         estimate D2E/DX2                !
 ! R46   R(40,42)                1.0996         estimate D2E/DX2                !
 ! R47   R(40,43)                1.0991         estimate D2E/DX2                !
 ! R48   R(44,45)                1.0992         estimate D2E/DX2                !
 ! R49   R(44,46)                1.0992         estimate D2E/DX2                !
 ! R50   R(44,47)                1.0986         estimate D2E/DX2                !
 ! R51   R(48,49)                1.0996         estimate D2E/DX2                !
 ! R52   R(48,50)                1.0996         estimate D2E/DX2                !
 ! R53   R(48,51)                1.54           estimate D2E/DX2                !
 ! R54   R(51,52)                1.4051         estimate D2E/DX2                !
 ! R55   R(51,53)                1.4051         estimate D2E/DX2                !
 ! R56   R(52,54)                1.3939         estimate D2E/DX2                !
 ! R57   R(52,57)                1.0856         estimate D2E/DX2                !
 ! R58   R(53,55)                1.3939         estimate D2E/DX2                !
 ! R59   R(53,58)                1.0856         estimate D2E/DX2                !
 ! R60   R(54,56)                1.3958         estimate D2E/DX2                !
 ! R61   R(54,59)                1.0863         estimate D2E/DX2                !
 ! R62   R(55,56)                1.3958         estimate D2E/DX2                !
 ! R63   R(55,60)                1.0863         estimate D2E/DX2                !
 ! R64   R(56,61)                1.086          estimate D2E/DX2                !
 ! A1    A(2,1,3)              110.7655         estimate D2E/DX2                !
 ! A2    A(2,1,29)             111.4222         estimate D2E/DX2                !
 ! A3    A(3,1,29)             111.4793         estimate D2E/DX2                !
 ! A4    A(1,2,4)              109.2715         estimate D2E/DX2                !
 ! A5    A(1,2,5)              109.0382         estimate D2E/DX2                !
 ! A6    A(1,2,6)              110.3888         estimate D2E/DX2                !
 ! A7    A(4,2,5)              107.5226         estimate D2E/DX2                !
 ! A8    A(4,2,6)              110.3586         estimate D2E/DX2                !
 ! A9    A(5,2,6)              110.2006         estimate D2E/DX2                !
 ! A10   A(1,3,7)              109.2392         estimate D2E/DX2                !
 ! A11   A(1,3,8)              109.1052         estimate D2E/DX2                !
 ! A12   A(1,3,9)              110.6781         estimate D2E/DX2                !
 ! A13   A(7,3,8)              107.5631         estimate D2E/DX2                !
 ! A14   A(7,3,9)              110.0329         estimate D2E/DX2                !
 ! A15   A(8,3,9)              110.1579         estimate D2E/DX2                !
 ! A16   A(2,6,10)             108.1551         estimate D2E/DX2                !
 ! A17   A(2,6,11)             108.2508         estimate D2E/DX2                !
 ! A18   A(2,6,21)             111.2047         estimate D2E/DX2                !
 ! A19   A(10,6,11)            108.2756         estimate D2E/DX2                !
 ! A20   A(10,6,21)            108.9176         estimate D2E/DX2                !
 ! A21   A(11,6,21)            111.9247         estimate D2E/DX2                !
 ! A22   A(3,9,11)             107.9112         estimate D2E/DX2                !
 ! A23   A(3,9,12)             107.3918         estimate D2E/DX2                !
 ! A24   A(3,9,25)             110.7613         estimate D2E/DX2                !
 ! A25   A(11,9,12)            109.217          estimate D2E/DX2                !
 ! A26   A(11,9,25)            111.9233         estimate D2E/DX2                !
 ! A27   A(12,9,25)            109.5126         estimate D2E/DX2                !
 ! A28   A(6,10,13)            111.5689         estimate D2E/DX2                !
 ! A29   A(6,10,14)            111.8402         estimate D2E/DX2                !
 ! A30   A(6,10,15)            110.2392         estimate D2E/DX2                !
 ! A31   A(13,10,14)           108.5093         estimate D2E/DX2                !
 ! A32   A(13,10,15)           107.0444         estimate D2E/DX2                !
 ! A33   A(14,10,15)           107.4331         estimate D2E/DX2                !
 ! A34   A(6,11,9)             109.0839         estimate D2E/DX2                !
 ! A35   A(6,11,16)            107.4489         estimate D2E/DX2                !
 ! A36   A(6,11,19)            113.0168         estimate D2E/DX2                !
 ! A37   A(9,11,16)            106.544          estimate D2E/DX2                !
 ! A38   A(9,11,19)            112.4093         estimate D2E/DX2                !
 ! A39   A(16,11,19)           108.0089         estimate D2E/DX2                !
 ! A40   A(9,12,15)            110.0489         estimate D2E/DX2                !
 ! A41   A(9,12,17)            111.1505         estimate D2E/DX2                !
 ! A42   A(9,12,18)            113.2753         estimate D2E/DX2                !
 ! A43   A(15,12,17)           107.2645         estimate D2E/DX2                !
 ! A44   A(15,12,18)           107.2177         estimate D2E/DX2                !
 ! A45   A(17,12,18)           107.6234         estimate D2E/DX2                !
 ! A46   A(10,15,12)           109.7903         estimate D2E/DX2                !
 ! A47   A(10,15,29)           108.5288         estimate D2E/DX2                !
 ! A48   A(10,15,32)           109.8618         estimate D2E/DX2                !
 ! A49   A(12,15,29)           108.4366         estimate D2E/DX2                !
 ! A50   A(12,15,32)           110.1375         estimate D2E/DX2                !
 ! A51   A(29,15,32)           110.0528         estimate D2E/DX2                !
 ! A52   A(11,19,20)           117.309          estimate D2E/DX2                !
 ! A53   A(11,19,48)           121.3455         estimate D2E/DX2                !
 ! A54   A(20,19,48)           121.3455         estimate D2E/DX2                !
 ! A55   A(6,21,22)            110.8857         estimate D2E/DX2                !
 ! A56   A(6,21,23)            110.8605         estimate D2E/DX2                !
 ! A57   A(6,21,24)            110.344          estimate D2E/DX2                !
 ! A58   A(22,21,23)           108.5491         estimate D2E/DX2                !
 ! A59   A(22,21,24)           108.2396         estimate D2E/DX2                !
 ! A60   A(23,21,24)           107.8627         estimate D2E/DX2                !
 ! A61   A(9,25,26)            111.7284         estimate D2E/DX2                !
 ! A62   A(9,25,27)            109.9424         estimate D2E/DX2                !
 ! A63   A(9,25,28)            110.8061         estimate D2E/DX2                !
 ! A64   A(26,25,27)           107.8879         estimate D2E/DX2                !
 ! A65   A(26,25,28)           108.2199         estimate D2E/DX2                !
 ! A66   A(27,25,28)           108.1361         estimate D2E/DX2                !
 ! A67   A(1,29,15)            110.0522         estimate D2E/DX2                !
 ! A68   A(1,29,30)            112.3071         estimate D2E/DX2                !
 ! A69   A(1,29,31)            112.3637         estimate D2E/DX2                !
 ! A70   A(15,29,30)           105.9241         estimate D2E/DX2                !
 ! A71   A(15,29,31)           105.9702         estimate D2E/DX2                !
 ! A72   A(30,29,31)           109.8346         estimate D2E/DX2                !
 ! A73   A(15,32,33)           120.0905         estimate D2E/DX2                !
 ! A74   A(15,32,34)           108.0387         estimate D2E/DX2                !
 ! A75   A(33,32,34)           131.8706         estimate D2E/DX2                !
 ! A76   A(32,34,35)           122.7359         estimate D2E/DX2                !
 ! A77   A(34,35,36)           108.3897         estimate D2E/DX2                !
 ! A78   A(34,35,40)           108.3138         estimate D2E/DX2                !
 ! A79   A(34,35,44)           102.3093         estimate D2E/DX2                !
 ! A80   A(36,35,40)           113.2602         estimate D2E/DX2                !
 ! A81   A(36,35,44)           111.9462         estimate D2E/DX2                !
 ! A82   A(40,35,44)           111.9202         estimate D2E/DX2                !
 ! A83   A(35,36,37)           110.6315         estimate D2E/DX2                !
 ! A84   A(35,36,38)           111.6984         estimate D2E/DX2                !
 ! A85   A(35,36,39)           108.6882         estimate D2E/DX2                !
 ! A86   A(37,36,38)           109.2984         estimate D2E/DX2                !
 ! A87   A(37,36,39)           108.1713         estimate D2E/DX2                !
 ! A88   A(38,36,39)           108.2556         estimate D2E/DX2                !
 ! A89   A(35,40,41)           111.7155         estimate D2E/DX2                !
 ! A90   A(35,40,42)           110.606          estimate D2E/DX2                !
 ! A91   A(35,40,43)           108.7046         estimate D2E/DX2                !
 ! A92   A(41,40,42)           109.2951         estimate D2E/DX2                !
 ! A93   A(41,40,43)           108.2485         estimate D2E/DX2                !
 ! A94   A(42,40,43)           108.1738         estimate D2E/DX2                !
 ! A95   A(35,44,45)           110.6978         estimate D2E/DX2                !
 ! A96   A(35,44,46)           110.7044         estimate D2E/DX2                !
 ! A97   A(35,44,47)           109.3803         estimate D2E/DX2                !
 ! A98   A(45,44,46)           108.9062         estimate D2E/DX2                !
 ! A99   A(45,44,47)           108.5509         estimate D2E/DX2                !
 ! A100  A(46,44,47)           108.5452         estimate D2E/DX2                !
 ! A101  A(19,48,49)           109.2962         estimate D2E/DX2                !
 ! A102  A(19,48,50)           109.2962         estimate D2E/DX2                !
 ! A103  A(19,48,51)           113.6597         estimate D2E/DX2                !
 ! A104  A(49,48,50)           105.8945         estimate D2E/DX2                !
 ! A105  A(49,48,51)           109.2014         estimate D2E/DX2                !
 ! A106  A(50,48,51)           109.2014         estimate D2E/DX2                !
 ! A107  A(48,51,52)           120.9441         estimate D2E/DX2                !
 ! A108  A(48,51,53)           120.9441         estimate D2E/DX2                !
 ! A109  A(52,51,53)           118.1119         estimate D2E/DX2                !
 ! A110  A(51,52,54)           120.9574         estimate D2E/DX2                !
 ! A111  A(51,52,57)           119.3831         estimate D2E/DX2                !
 ! A112  A(54,52,57)           119.6595         estimate D2E/DX2                !
 ! A113  A(51,53,55)           120.9574         estimate D2E/DX2                !
 ! A114  A(51,53,58)           119.3831         estimate D2E/DX2                !
 ! A115  A(55,53,58)           119.6595         estimate D2E/DX2                !
 ! A116  A(52,54,56)           120.2599         estimate D2E/DX2                !
 ! A117  A(52,54,59)           119.6574         estimate D2E/DX2                !
 ! A118  A(56,54,59)           120.0828         estimate D2E/DX2                !
 ! A119  A(53,55,56)           120.2599         estimate D2E/DX2                !
 ! A120  A(53,55,60)           119.6574         estimate D2E/DX2                !
 ! A121  A(56,55,60)           120.0828         estimate D2E/DX2                !
 ! A122  A(54,56,55)           119.4536         estimate D2E/DX2                !
 ! A123  A(54,56,61)           120.2732         estimate D2E/DX2                !
 ! A124  A(55,56,61)           120.2732         estimate D2E/DX2                !
 ! D1    D(3,1,2,4)           -176.0322         estimate D2E/DX2                !
 ! D2    D(3,1,2,5)            -58.7701         estimate D2E/DX2                !
 ! D3    D(3,1,2,6)             62.4253         estimate D2E/DX2                !
 ! D4    D(29,1,2,4)            59.2572         estimate D2E/DX2                !
 ! D5    D(29,1,2,5)           176.5193         estimate D2E/DX2                !
 ! D6    D(29,1,2,6)           -62.2853         estimate D2E/DX2                !
 ! D7    D(2,1,3,7)            176.1132         estimate D2E/DX2                !
 ! D8    D(2,1,3,8)             58.7825         estimate D2E/DX2                !
 ! D9    D(2,1,3,9)            -62.5861         estimate D2E/DX2                !
 ! D10   D(29,1,3,7)           -59.2085         estimate D2E/DX2                !
 ! D11   D(29,1,3,8)          -176.5392         estimate D2E/DX2                !
 ! D12   D(29,1,3,9)            62.0922         estimate D2E/DX2                !
 ! D13   D(2,1,29,15)           62.4815         estimate D2E/DX2                !
 ! D14   D(2,1,29,30)          -55.2576         estimate D2E/DX2                !
 ! D15   D(2,1,29,31)         -179.6863         estimate D2E/DX2                !
 ! D16   D(3,1,29,15)          -61.8281         estimate D2E/DX2                !
 ! D17   D(3,1,29,30)         -179.5672         estimate D2E/DX2                !
 ! D18   D(3,1,29,31)           56.0041         estimate D2E/DX2                !
 ! D19   D(1,2,6,10)            57.4984         estimate D2E/DX2                !
 ! D20   D(1,2,6,11)           -59.6073         estimate D2E/DX2                !
 ! D21   D(1,2,6,21)           177.049          estimate D2E/DX2                !
 ! D22   D(4,2,6,10)           -63.3978         estimate D2E/DX2                !
 ! D23   D(4,2,6,11)           179.4965         estimate D2E/DX2                !
 ! D24   D(4,2,6,21)            56.1529         estimate D2E/DX2                !
 ! D25   D(5,2,6,10)           178.0            estimate D2E/DX2                !
 ! D26   D(5,2,6,11)            60.8943         estimate D2E/DX2                !
 ! D27   D(5,2,6,21)           -62.4493         estimate D2E/DX2                !
 ! D28   D(1,3,9,11)            59.6581         estimate D2E/DX2                !
 ! D29   D(1,3,9,12)           -57.9693         estimate D2E/DX2                !
 ! D30   D(1,3,9,25)          -177.5114         estimate D2E/DX2                !
 ! D31   D(7,3,9,11)          -179.5113         estimate D2E/DX2                !
 ! D32   D(7,3,9,12)            62.8613         estimate D2E/DX2                !
 ! D33   D(7,3,9,25)           -56.6808         estimate D2E/DX2                !
 ! D34   D(8,3,9,11)           -61.087          estimate D2E/DX2                !
 ! D35   D(8,3,9,12)          -178.7144         estimate D2E/DX2                !
 ! D36   D(8,3,9,25)            61.7435         estimate D2E/DX2                !
 ! D37   D(2,6,10,13)           62.4412         estimate D2E/DX2                !
 ! D38   D(2,6,10,14)         -175.8105         estimate D2E/DX2                !
 ! D39   D(2,6,10,15)          -56.3536         estimate D2E/DX2                !
 ! D40   D(11,6,10,13)         179.5309         estimate D2E/DX2                !
 ! D41   D(11,6,10,14)         -58.7207         estimate D2E/DX2                !
 ! D42   D(11,6,10,15)          60.7362         estimate D2E/DX2                !
 ! D43   D(21,6,10,13)         -58.5408         estimate D2E/DX2                !
 ! D44   D(21,6,10,14)          63.2075         estimate D2E/DX2                !
 ! D45   D(21,6,10,15)        -177.3356         estimate D2E/DX2                !
 ! D46   D(2,6,11,9)            57.6662         estimate D2E/DX2                !
 ! D47   D(2,6,11,16)          -57.4584         estimate D2E/DX2                !
 ! D48   D(2,6,11,19)         -176.5127         estimate D2E/DX2                !
 ! D49   D(10,6,11,9)          -59.3619         estimate D2E/DX2                !
 ! D50   D(10,6,11,16)        -174.4866         estimate D2E/DX2                !
 ! D51   D(10,6,11,19)          66.4591         estimate D2E/DX2                !
 ! D52   D(21,6,11,9)         -179.4263         estimate D2E/DX2                !
 ! D53   D(21,6,11,16)          65.4491         estimate D2E/DX2                !
 ! D54   D(21,6,11,19)         -53.6052         estimate D2E/DX2                !
 ! D55   D(2,6,21,22)          177.9669         estimate D2E/DX2                !
 ! D56   D(2,6,21,23)          -61.3838         estimate D2E/DX2                !
 ! D57   D(2,6,21,24)           58.0481         estimate D2E/DX2                !
 ! D58   D(10,6,21,22)         -62.9376         estimate D2E/DX2                !
 ! D59   D(10,6,21,23)          57.7117         estimate D2E/DX2                !
 ! D60   D(10,6,21,24)         177.1436         estimate D2E/DX2                !
 ! D61   D(11,6,21,22)          56.7507         estimate D2E/DX2                !
 ! D62   D(11,6,21,23)         177.4            estimate D2E/DX2                !
 ! D63   D(11,6,21,24)         -63.1681         estimate D2E/DX2                !
 ! D64   D(3,9,11,6)           -57.4429         estimate D2E/DX2                !
 ! D65   D(3,9,11,16)           58.2638         estimate D2E/DX2                !
 ! D66   D(3,9,11,19)          176.386          estimate D2E/DX2                !
 ! D67   D(12,9,11,6)           59.0013         estimate D2E/DX2                !
 ! D68   D(12,9,11,16)         174.708          estimate D2E/DX2                !
 ! D69   D(12,9,11,19)         -67.1698         estimate D2E/DX2                !
 ! D70   D(25,9,11,6)         -179.56           estimate D2E/DX2                !
 ! D71   D(25,9,11,16)         -63.8532         estimate D2E/DX2                !
 ! D72   D(25,9,11,19)          54.2689         estimate D2E/DX2                !
 ! D73   D(3,9,12,15)           57.3617         estimate D2E/DX2                !
 ! D74   D(3,9,12,17)          -61.3194         estimate D2E/DX2                !
 ! D75   D(3,9,12,18)          177.3613         estimate D2E/DX2                !
 ! D76   D(11,9,12,15)         -59.4124         estimate D2E/DX2                !
 ! D77   D(11,9,12,17)        -178.0935         estimate D2E/DX2                !
 ! D78   D(11,9,12,18)          60.5872         estimate D2E/DX2                !
 ! D79   D(25,9,12,15)         177.6988         estimate D2E/DX2                !
 ! D80   D(25,9,12,17)          59.0177         estimate D2E/DX2                !
 ! D81   D(25,9,12,18)         -62.3016         estimate D2E/DX2                !
 ! D82   D(3,9,25,26)          178.256          estimate D2E/DX2                !
 ! D83   D(3,9,25,27)          -61.9861         estimate D2E/DX2                !
 ! D84   D(3,9,25,28)           57.4927         estimate D2E/DX2                !
 ! D85   D(11,9,25,26)         -61.2724         estimate D2E/DX2                !
 ! D86   D(11,9,25,27)          58.4855         estimate D2E/DX2                !
 ! D87   D(11,9,25,28)         177.9643         estimate D2E/DX2                !
 ! D88   D(12,9,25,26)          59.9958         estimate D2E/DX2                !
 ! D89   D(12,9,25,27)         179.7537         estimate D2E/DX2                !
 ! D90   D(12,9,25,28)         -60.7674         estimate D2E/DX2                !
 ! D91   D(6,10,15,12)         -61.4922         estimate D2E/DX2                !
 ! D92   D(6,10,15,29)          56.8724         estimate D2E/DX2                !
 ! D93   D(6,10,15,32)         177.2419         estimate D2E/DX2                !
 ! D94   D(13,10,15,12)        176.9843         estimate D2E/DX2                !
 ! D95   D(13,10,15,29)        -64.6511         estimate D2E/DX2                !
 ! D96   D(13,10,15,32)         55.7184         estimate D2E/DX2                !
 ! D97   D(14,10,15,12)         60.6058         estimate D2E/DX2                !
 ! D98   D(14,10,15,29)        178.9704         estimate D2E/DX2                !
 ! D99   D(14,10,15,32)        -60.6601         estimate D2E/DX2                !
 ! D100  D(6,11,19,20)         -87.1956         estimate D2E/DX2                !
 ! D101  D(6,11,19,48)          92.8044         estimate D2E/DX2                !
 ! D102  D(9,11,19,20)          36.8207         estimate D2E/DX2                !
 ! D103  D(9,11,19,48)        -143.1793         estimate D2E/DX2                !
 ! D104  D(16,11,19,20)        154.0745         estimate D2E/DX2                !
 ! D105  D(16,11,19,48)        -25.9255         estimate D2E/DX2                !
 ! D106  D(9,12,15,10)          60.4112         estimate D2E/DX2                !
 ! D107  D(9,12,15,29)         -58.0104         estimate D2E/DX2                !
 ! D108  D(9,12,15,32)        -178.4887         estimate D2E/DX2                !
 ! D109  D(17,12,15,10)       -178.549          estimate D2E/DX2                !
 ! D110  D(17,12,15,29)         63.0294         estimate D2E/DX2                !
 ! D111  D(17,12,15,32)        -57.4489         estimate D2E/DX2                !
 ! D112  D(18,12,15,10)        -63.1939         estimate D2E/DX2                !
 ! D113  D(18,12,15,29)        178.3846         estimate D2E/DX2                !
 ! D114  D(18,12,15,32)         57.9063         estimate D2E/DX2                !
 ! D115  D(10,15,29,1)         -59.5431         estimate D2E/DX2                !
 ! D116  D(10,15,29,30)         62.0799         estimate D2E/DX2                !
 ! D117  D(10,15,29,31)        178.7379         estimate D2E/DX2                !
 ! D118  D(12,15,29,1)          59.6751         estimate D2E/DX2                !
 ! D119  D(12,15,29,30)       -178.7018         estimate D2E/DX2                !
 ! D120  D(12,15,29,31)        -62.0439         estimate D2E/DX2                !
 ! D121  D(32,15,29,1)        -179.794          estimate D2E/DX2                !
 ! D122  D(32,15,29,30)        -58.1709         estimate D2E/DX2                !
 ! D123  D(32,15,29,31)         58.487          estimate D2E/DX2                !
 ! D124  D(10,15,32,33)       -119.1411         estimate D2E/DX2                !
 ! D125  D(10,15,32,34)         60.7467         estimate D2E/DX2                !
 ! D126  D(12,15,32,33)        119.8016         estimate D2E/DX2                !
 ! D127  D(12,15,32,34)        -60.3106         estimate D2E/DX2                !
 ! D128  D(29,15,32,33)          0.301          estimate D2E/DX2                !
 ! D129  D(29,15,32,34)       -179.8112         estimate D2E/DX2                !
 ! D130  D(11,19,48,49)        -29.8159         estimate D2E/DX2                !
 ! D131  D(11,19,48,50)         85.6532         estimate D2E/DX2                !
 ! D132  D(11,19,48,51)       -152.0814         estimate D2E/DX2                !
 ! D133  D(20,19,48,49)        150.1841         estimate D2E/DX2                !
 ! D134  D(20,19,48,50)        -94.3468         estimate D2E/DX2                !
 ! D135  D(20,19,48,51)         27.9186         estimate D2E/DX2                !
 ! D136  D(15,32,34,35)       -179.2789         estimate D2E/DX2                !
 ! D137  D(33,32,34,35)          0.5908         estimate D2E/DX2                !
 ! D138  D(32,34,35,36)        -61.8507         estimate D2E/DX2                !
 ! D139  D(32,34,35,40)         61.4067         estimate D2E/DX2                !
 ! D140  D(32,34,35,44)        179.747          estimate D2E/DX2                !
 ! D141  D(34,35,36,37)        -55.5088         estimate D2E/DX2                !
 ! D142  D(34,35,36,38)         66.4888         estimate D2E/DX2                !
 ! D143  D(34,35,36,39)       -174.1373         estimate D2E/DX2                !
 ! D144  D(40,35,36,37)       -175.7294         estimate D2E/DX2                !
 ! D145  D(40,35,36,38)        -53.7318         estimate D2E/DX2                !
 ! D146  D(40,35,36,39)         65.6421         estimate D2E/DX2                !
 ! D147  D(44,35,36,37)         56.588          estimate D2E/DX2                !
 ! D148  D(44,35,36,38)        178.5856         estimate D2E/DX2                !
 ! D149  D(44,35,36,39)        -62.0406         estimate D2E/DX2                !
 ! D150  D(34,35,40,41)        -66.6074         estimate D2E/DX2                !
 ! D151  D(34,35,40,42)         55.3797         estimate D2E/DX2                !
 ! D152  D(34,35,40,43)        174.0063         estimate D2E/DX2                !
 ! D153  D(36,35,40,41)         53.6563         estimate D2E/DX2                !
 ! D154  D(36,35,40,42)        175.6435         estimate D2E/DX2                !
 ! D155  D(36,35,40,43)        -65.7299         estimate D2E/DX2                !
 ! D156  D(44,35,40,41)       -178.6475         estimate D2E/DX2                !
 ! D157  D(44,35,40,42)        -56.6603         estimate D2E/DX2                !
 ! D158  D(44,35,40,43)         61.9663         estimate D2E/DX2                !
 ! D159  D(34,35,44,45)        -60.4002         estimate D2E/DX2                !
 ! D160  D(34,35,44,46)         60.4697         estimate D2E/DX2                !
 ! D161  D(34,35,44,47)       -179.9667         estimate D2E/DX2                !
 ! D162  D(36,35,44,45)       -176.2524         estimate D2E/DX2                !
 ! D163  D(36,35,44,46)        -55.3824         estimate D2E/DX2                !
 ! D164  D(36,35,44,47)         64.1811         estimate D2E/DX2                !
 ! D165  D(40,35,44,45)         55.3524         estimate D2E/DX2                !
 ! D166  D(40,35,44,46)        176.2223         estimate D2E/DX2                !
 ! D167  D(40,35,44,47)        -64.2142         estimate D2E/DX2                !
 ! D168  D(19,48,51,52)        -90.0            estimate D2E/DX2                !
 ! D169  D(19,48,51,53)         90.0            estimate D2E/DX2                !
 ! D170  D(49,48,51,52)        147.6821         estimate D2E/DX2                !
 ! D171  D(49,48,51,53)        -32.3179         estimate D2E/DX2                !
 ! D172  D(50,48,51,52)         32.3179         estimate D2E/DX2                !
 ! D173  D(50,48,51,53)       -147.6821         estimate D2E/DX2                !
 ! D174  D(48,51,52,54)        180.0            estimate D2E/DX2                !
 ! D175  D(48,51,52,57)          0.0            estimate D2E/DX2                !
 ! D176  D(53,51,52,54)          0.0            estimate D2E/DX2                !
 ! D177  D(53,51,52,57)        180.0            estimate D2E/DX2                !
 ! D178  D(48,51,53,55)       -180.0            estimate D2E/DX2                !
 ! D179  D(48,51,53,58)          0.0            estimate D2E/DX2                !
 ! D180  D(52,51,53,55)          0.0            estimate D2E/DX2                !
 ! D181  D(52,51,53,58)        180.0            estimate D2E/DX2                !
 ! D182  D(51,52,54,56)          0.0            estimate D2E/DX2                !
 ! D183  D(51,52,54,59)        180.0            estimate D2E/DX2                !
 ! D184  D(57,52,54,56)        180.0            estimate D2E/DX2                !
 ! D185  D(57,52,54,59)          0.0            estimate D2E/DX2                !
 ! D186  D(51,53,55,56)          0.0            estimate D2E/DX2                !
 ! D187  D(51,53,55,60)        180.0            estimate D2E/DX2                !
 ! D188  D(58,53,55,56)        180.0            estimate D2E/DX2                !
 ! D189  D(58,53,55,60)          0.0            estimate D2E/DX2                !
 ! D190  D(52,54,56,55)          0.0            estimate D2E/DX2                !
 ! D191  D(52,54,56,61)        180.0            estimate D2E/DX2                !
 ! D192  D(59,54,56,55)        180.0            estimate D2E/DX2                !
 ! D193  D(59,54,56,61)          0.0            estimate D2E/DX2                !
 ! D194  D(53,55,56,54)          0.0            estimate D2E/DX2                !
 ! D195  D(53,55,56,61)        180.0            estimate D2E/DX2                !
 ! D196  D(60,55,56,54)        180.0            estimate D2E/DX2                !
 ! D197  D(60,55,56,61)          0.0            estimate D2E/DX2                !
 --------------------------------------------------------------------------------
 Trust Radius=3.00D-01 FncErr=1.00D-07 GrdErr=1.00D-06 EigMax=2.50D+02 EigMin=1.00D-04
 Number of steps in this run=    366 maximum allowed number of steps=    366.
 GradGradGradGradGradGradGradGradGradGradGradGradGradGradGradGradGradGrad

 Leave Link  103 at Tue Mar 16 05:16:03 2021, MaxMem=  6174015488 cpu:               1.3 elap:               0.1
 (Enter /opt/g16avx/l202.exe)
 Stoichiometry    C22H34N3O2(1+)
 Framework group  C1[X(C22H34N3O2)]
 Deg. of freedom   177
 Full point group                 C1      NOp   1
 Largest Abelian subgroup         C1      NOp   1
 Largest concise Abelian subgroup C1      NOp   1
                         Standard orientation:                         
 ---------------------------------------------------------------------
 Center     Atomic      Atomic             Coordinates (Angstroms)
 Number     Number       Type             X           Y           Z
 ---------------------------------------------------------------------
      1          7           0        2.135554   -2.894311   -0.485456
      2          6           0        1.066801   -2.894389   -1.473783
      3          6           0        1.608663   -3.161168    0.844002
      4          1           0        1.500076   -2.761428   -2.477833
      5          1           0        0.562706   -3.872478   -1.457312
      6          6           0        0.061313   -1.775046   -1.173835
      7          1           0        2.443913   -3.224651    1.559498
      8          1           0        1.099679   -4.136445    0.840520
      9          6           0        0.630840   -2.054698    1.272684
     10          6           0        0.817035   -0.447954   -1.158787
     11          6           0       -0.526989   -2.016535    0.242934
     12          6           0        1.391267   -0.728794    1.224446
     13          1           0        1.264937   -0.226681   -2.138405
     14          1           0        0.166089    0.389493   -0.876077
     15          7           0        1.945564   -0.501141   -0.158273
     16          1           0       -0.981600   -3.019150    0.245094
     17          1           0        2.242466   -0.734070    1.920453
     18          1           0        0.765826    0.139226    1.470815
     19          7           0       -1.544364   -1.066909    0.597901
     20          1           0       -1.242476   -0.201506    1.025260
     21          6           0       -1.023668   -1.712001   -2.235412
     22          1           0       -1.760915   -0.932402   -1.996463
     23          1           0       -0.592296   -1.494625   -3.224199
     24          1           0       -1.550473   -2.675401   -2.301507
     25          6           0        0.125970   -2.299418    2.685662
     26          1           0       -0.550966   -1.500767    3.019862
     27          1           0       -0.426313   -3.250017    2.727432
     28          1           0        0.964599   -2.359052    3.395515
     29          6           0        2.866362   -1.691429   -0.518466
     30          1           0        3.263539   -1.473122   -1.516616
     31          1           0        3.679625   -1.677034    0.216908
     32          6           0        2.725144    0.784562   -0.198444
     33          8           0        3.881737    0.773267   -0.485175
     34          8           0        1.924082    1.747257    0.110689
     35          6           0        2.357419    3.175186    0.155635
     36          6           0        3.436627    3.314864    1.213052
     37          1           0        3.078454    2.942669    2.183721
     38          1           0        4.351162    2.776357    0.933117
     39          1           0        3.684632    4.379839    1.324630
     40          6           0        2.822558    3.576205   -1.231936
     41          1           0        3.734425    3.040286   -1.525260
     42          1           0        2.034313    3.385542   -1.974459
     43          1           0        3.041056    4.653365   -1.232834
     44          6           0        1.080407    3.887986    0.552171
     45          1           0        0.292591    3.718377   -0.195423
     46          1           0        0.725360    3.533883    1.530358
     47          1           0        1.271494    4.967689    0.619746
     48          6           0       -2.966994   -1.341817    0.350011
     49          1           0       -3.063160   -1.992753   -0.530985
     50          1           0       -3.378872   -1.914182    1.193738
     51          6           0       -3.813658   -0.073162    0.137233
     52          6           0       -4.427655    0.575991    1.221641
     53          6           0       -3.994105    0.468094   -1.146828
     54          6           0       -5.194028    1.724264    1.029374
     55          6           0       -4.760361    1.616337   -1.339731
     56          6           0       -5.364047    2.249967   -0.252399
     57          1           0       -4.301862    0.175498    2.222763
     58          1           0       -3.528983   -0.016848   -1.999446
     59          1           0       -5.659242    2.209145    1.882881
     60          1           0       -4.885927    2.016690   -2.341708
     61          1           0       -5.961111    3.144616   -0.402449
 ---------------------------------------------------------------------
 Rotational constants (GHZ):           0.2310901           0.1460564           0.1083245
 Leave Link  202 at Tue Mar 16 05:16:03 2021, MaxMem=  6174015488 cpu:               2.4 elap:               0.2
 (Enter /opt/g16avx/l301.exe)
 Standard basis: def2SVP (5D, 7F)
 Ernie: Thresh=  0.10000D-02 Tol=  0.10000D-05 Strict=F.
 There are   575 symmetry adapted cartesian basis functions of A   symmetry.
 There are   548 symmetry adapted basis functions of A   symmetry.
   548 basis functions,   913 primitive gaussians,   575 cartesian basis functions
   101 alpha electrons      101 beta electrons
       nuclear repulsion energy      2769.1343941005 Hartrees.
 IExCor= 1009 DFT=T Ex+Corr=PBE1PBE ExCW=0 ScaHFX=  0.250000
 ScaDFX=  0.750000  0.750000  1.000000  1.000000 ScalE2=  1.000000  1.000000
 IRadAn=      5 IRanWt=     -1 IRanGd=            0 ICorTp=0 IEmpDi=141
 NAtoms=   61 NActive=   61 NUniq=   61 SFac= 1.00D+00 NAtFMM=   60 NAOKFM=T Big=T
 Integral buffers will be    131072 words long.
 Raffenetti 2 integral format.
 Two-electron integral symmetry is turned on.
 R6Disp:  Grimme-D3(BJ) Dispersion energy=       -0.0752433746 Hartrees.
 Nuclear repulsion after empirical dispersion term =     2769.0591507259 Hartrees.
 ------------------------------------------------------------------------------
 Polarizable Continuum Model (PCM)
 =================================
 Model                : PCM.
 Atomic radii         : SMD-Coulomb.
 Polarization charges : Total charges.
 Charge compensation  : None.
 Solution method      : On-the-fly selection.
 Cavity type          : VdW (van der Waals Surface) (Alpha=1.000).
 Cavity algorithm     : GePol (No added spheres)
                        Default sphere list used, NSphG=   61.
                        Lebedev-Laikov grids with approx.  5.0 points / Ang**2.
                        Smoothing algorithm: York/Karplus (Gamma=1.0000).
                        Polarization charges: spherical gaussians, with
                                              point-specific exponents (IZeta= 3).
                        Self-potential: point-specific (ISelfS= 7).
                        Self-field    : sphere-specific E.n sum rule (ISelfD= 2).
 1st derivatives      : Analytical E(r).r(x)/FMM algorithm (CHGder, D1EAlg=3).
                        Cavity 1st derivative terms included.
 Solvent              : Water, Eps=  78.355300 Eps(inf)=   1.777849
 ------------------------------------------------------------------------------
 GePol: Number of generator spheres                  =      61
 GePol: Total number of spheres                      =      61
 GePol: Number of exposed spheres                    =      61 (100.00%)
 GePol: Number of points                             =    3788
 GePol: Average weight of points                     =       0.11
 GePol: Minimum weight of points                     =   0.12D-08
 GePol: Maximum weight of points                     =    0.21991
 GePol: Number of points with low weight             =     250
 GePol: Fraction of low-weight points (<1% of avg)   =       6.60%
 GePol: Cavity surface area                          =    413.533 Ang**2
 GePol: Cavity volume                                =    394.267 Ang**3
 ------------------------------------------------------------------------------
 Atomic radii for non-electrostatic terms: SMD-CDS.
 ------------------------------------------------------------------------------
 PCM non-electrostatic energy =         0.0101218246 Hartrees.
 Nuclear repulsion after PCM non-electrostatic terms =     2769.0692725505 Hartrees.
 Leave Link  301 at Tue Mar 16 05:16:03 2021, MaxMem=  6174015488 cpu:               4.3 elap:               0.3
 (Enter /opt/g16avx/l302.exe)
 NPDir=0 NMtPBC=     1 NCelOv=     1 NCel=       1 NClECP=     1 NCelD=      1
         NCelK=      1 NCelE2=     1 NClLst=     1 CellRange=     0.0.
 One-electron integrals computed using PRISM.
 One-electron integral symmetry used in STVInt
   1 Symmetry operations used in ECPInt.
 ECPInt:  NShTT=   34980 NPrTT=  122718 LenC2=   30923 LenP2D=   74411.
 LDataN:  DoStor=T MaxTD1= 4 Len=   56
 NBasis=   548 RedAO= T EigKep=  2.95D-04  NBF=   548
 NBsUse=   548 1.00D-06 EigRej= -1.00D+00 NBFU=   548
 Precomputing XC quadrature grid using
 IXCGrd= 4 IRadAn=           5 IRanWt=          -1 IRanGd=           0 AccXCQ= 0.00D+00.
 Generated NRdTot=       0 NPtTot=           0 NUsed=           0 NTot=          32
 NSgBfM=   571   571   571   571   571 MxSgAt=    61 MxSgA2=    61.
 Leave Link  302 at Tue Mar 16 05:16:12 2021, MaxMem=  6174015488 cpu:             149.5 elap:               9.4
 (Enter /opt/g16avx/l303.exe)
 DipDrv:  MaxL=1.
 Leave Link  303 at Tue Mar 16 05:16:13 2021, MaxMem=  6174015488 cpu:               7.3 elap:               0.5
 (Enter /opt/g16avx/l401.exe)
 ExpMin= 1.22D-01 ExpMax= 2.27D+03 ExpMxC= 3.41D+02 IAcc=3 IRadAn=         5 AccDes= 0.00D+00
 Harris functional with IExCor= 1009 and IRadAn=       5 diagonalized for initial guess.
 HarFok:  IExCor= 1009 AccDes= 0.00D+00 IRadAn=         5 IDoV= 1 UseB2=F ITyADJ=14
 ICtDFT=  3500011 ScaDFX=  1.000000  1.000000  1.000000  1.000000
 FoFCou: FMM=F IPFlag=           0 FMFlag=      100000 FMFlg1=        2001
         NFxFlg=           0 DoJE=T BraDBF=F KetDBF=T FulRan=T
         wScrn=  0.000000 ICntrl=       500 IOpCl=  0 I1Cent=   200000004 NGrid=           0
         NMat0=    1 NMatS0=      1 NMatT0=    0 NMatD0=    1 NMtDS0=    0 NMtDT0=    0
 Petite list used in FoFCou.
 Harris En= -1171.46609260223    
 JPrj=0 DoOrth=F DoCkMO=F.
 Leave Link  401 at Tue Mar 16 05:16:20 2021, MaxMem=  6174015488 cpu:             118.0 elap:               7.4
 (Enter /opt/g16avx/l502.exe)
 Integral symmetry usage will be decided dynamically.
 Closed shell SCF:
 Using DIIS extrapolation, IDIIS=  1040.
 NGot=  6174015488 LenX=  6173336413 LenY=  6173005213
 Requested convergence on RMS density matrix=1.00D-08 within 128 cycles.
 Requested convergence on MAX density matrix=1.00D-06.
 Requested convergence on             energy=1.00D-06.
 No special actions if energy rises.
 Fock matrices will be formed incrementally for  20 cycles.

 Cycle   1  Pass 1  IDiag  1:
 FoFJK:  IHMeth= 1 ICntrl=       0 DoSepK=F KAlg= 0 I1Cent=           0 FoldK=F
 IRaf= 990000000 NMat=       1 IRICut=       1 DoRegI=T DoRafI=F ISym2E= 0 IDoP0=0 IntGTp=1.
 FoFCou: FMM=T IPFlag=           0 FMFlag=      100000 FMFlg1=        2001
         NFxFlg=           0 DoJE=F BraDBF=F KetDBF=F FulRan=T
         wScrn=  0.000000 ICntrl=         0 IOpCl=  0 I1Cent=           0 NGrid=           0
         NMat0=    1 NMatS0=      1 NMatT0=    0 NMatD0=    1 NMtDS0=    0 NMtDT0=    0
 Symmetry not used in FoFCou.
 FMM levels:  10  Number of levels for PrismC:   9
 Inv3:  Mode=1 IEnd=    43046832.
 Iteration    1 A*A^-1 deviation from unit magnitude is 3.55D-15 for   3149.
 Iteration    1 A*A^-1 deviation from orthogonality  is 2.33D-15 for   2689    490.
 Iteration    1 A^-1*A deviation from unit magnitude is 3.33D-15 for    114.
 Iteration    1 A^-1*A deviation from orthogonality  is 2.89D-15 for   3175    379.
 E= -1170.69410483732    
 DIIS: error= 2.88D-02 at cycle   1 NSaved=   1.
 NSaved= 1 IEnMin= 1 EnMin= -1170.69410483732     IErMin= 1 ErrMin= 2.88D-02
 ErrMax= 2.88D-02  0.00D+00 EMaxC= 1.00D-01 BMatC= 5.68D-01 BMatP= 5.68D-01
 IDIUse=3 WtCom= 7.12D-01 WtEn= 2.88D-01
 Coeff-Com:  0.100D+01
 Coeff-En:   0.100D+01
 Coeff:      0.100D+01
 Gap=     0.197 Goal=   None    Shift=    0.000
 GapD=    0.197 DampG=1.000 DampE=0.500 DampFc=0.5000 IDamp=-1.
 Damping current iteration by 5.00D-01
 RMSDP=3.38D-03 MaxDP=1.70D-01              OVMax= 1.65D-01

 Cycle   2  Pass 1  IDiag  1:
 RMSU=  1.66D-03    CP:  9.77D-01
 E= -1170.93531344888     Delta-E=       -0.241208611558 Rises=F Damp=T
 DIIS: error= 8.79D-03 at cycle   2 NSaved=   2.
 NSaved= 2 IEnMin= 2 EnMin= -1170.93531344888     IErMin= 2 ErrMin= 8.79D-03
 ErrMax= 8.79D-03  0.00D+00 EMaxC= 1.00D-01 BMatC= 5.03D-02 BMatP= 5.68D-01
 IDIUse=3 WtCom= 9.12D-01 WtEn= 8.79D-02
 Coeff-Com:  0.108D+00 0.892D+00
 Coeff-En:   0.150D+00 0.850D+00
 Coeff:      0.112D+00 0.888D+00
 Gap=     0.184 Goal=   None    Shift=    0.000
 RMSDP=9.87D-04 MaxDP=6.40D-02 DE=-2.41D-01 OVMax= 1.26D-01

 Cycle   3  Pass 1  IDiag  1:
 RMSU=  9.67D-04    CP:  9.66D-01  1.07D+00
 E= -1171.23153710539     Delta-E=       -0.296223656509 Rises=F Damp=F
 DIIS: error= 1.12D-02 at cycle   3 NSaved=   3.
 NSaved= 3 IEnMin= 3 EnMin= -1171.23153710539     IErMin= 2 ErrMin= 8.79D-03
 ErrMax= 1.12D-02  0.00D+00 EMaxC= 1.00D-01 BMatC= 4.99D-02 BMatP= 5.03D-02
 IDIUse=3 WtCom= 8.88D-01 WtEn= 1.12D-01
 Coeff-Com:  0.493D-02 0.498D+00 0.497D+00
 Coeff-En:   0.000D+00 0.000D+00 0.100D+01
 Coeff:      0.437D-02 0.442D+00 0.554D+00
 Gap=     0.196 Goal=   None    Shift=    0.000
 RMSDP=4.68D-04 MaxDP=5.61D-02 DE=-2.96D-01 OVMax= 4.83D-02

 Cycle   4  Pass 1  IDiag  1:
 RMSU=  3.85D-04    CP:  9.69D-01  1.10D+00  7.33D-01
 E= -1171.26499235798     Delta-E=       -0.033455252594 Rises=F Damp=F
 DIIS: error= 4.82D-03 at cycle   4 NSaved=   4.
 NSaved= 4 IEnMin= 4 EnMin= -1171.26499235798     IErMin= 4 ErrMin= 4.82D-03
 ErrMax= 4.82D-03  0.00D+00 EMaxC= 1.00D-01 BMatC= 8.57D-03 BMatP= 4.99D-02
 IDIUse=3 WtCom= 9.52D-01 WtEn= 4.82D-02
 Coeff-Com: -0.630D-02 0.842D-01 0.308D+00 0.614D+00
 Coeff-En:   0.000D+00 0.000D+00 0.155D+00 0.845D+00
 Coeff:     -0.599D-02 0.801D-01 0.301D+00 0.625D+00
 Gap=     0.193 Goal=   None    Shift=    0.000
 RMSDP=1.72D-04 MaxDP=1.97D-02 DE=-3.35D-02 OVMax= 2.00D-02

 Cycle   5  Pass 1  IDiag  1:
 RMSU=  9.73D-05    CP:  9.68D-01  1.09D+00  7.82D-01  6.56D-01
 E= -1171.27136432292     Delta-E=       -0.006371964936 Rises=F Damp=F
 DIIS: error= 1.90D-03 at cycle   5 NSaved=   5.
 NSaved= 5 IEnMin= 5 EnMin= -1171.27136432292     IErMin= 5 ErrMin= 1.90D-03
 ErrMax= 1.90D-03  0.00D+00 EMaxC= 1.00D-01 BMatC= 5.48D-04 BMatP= 8.57D-03
 IDIUse=3 WtCom= 9.81D-01 WtEn= 1.90D-02
 Coeff-Com: -0.375D-02 0.155D-01 0.129D+00 0.342D+00 0.518D+00
 Coeff-En:   0.000D+00 0.000D+00 0.000D+00 0.000D+00 0.100D+01
 Coeff:     -0.368D-02 0.152D-01 0.127D+00 0.335D+00 0.527D+00
 Gap=     0.197 Goal=   None    Shift=    0.000
 RMSDP=4.63D-05 MaxDP=4.86D-03 DE=-6.37D-03 OVMax= 5.49D-03

 Cycle   6  Pass 1  IDiag  1:
 RMSU=  2.72D-05    CP:  9.67D-01  1.09D+00  7.88D-01  6.94D-01  6.51D-01
 E= -1171.27176804038     Delta-E=       -0.000403717459 Rises=F Damp=F
 DIIS: error= 4.85D-04 at cycle   6 NSaved=   6.
 NSaved= 6 IEnMin= 6 EnMin= -1171.27176804038     IErMin= 6 ErrMin= 4.85D-04
 ErrMax= 4.85D-04  0.00D+00 EMaxC= 1.00D-01 BMatC= 4.20D-05 BMatP= 5.48D-04
 IDIUse=3 WtCom= 9.95D-01 WtEn= 4.85D-03
 Coeff-Com: -0.145D-02-0.381D-03 0.326D-01 0.108D+00 0.277D+00 0.585D+00
 Coeff-En:   0.000D+00 0.000D+00 0.000D+00 0.000D+00 0.000D+00 0.100D+01
 Coeff:     -0.144D-02-0.379D-03 0.324D-01 0.107D+00 0.275D+00 0.587D+00
 Gap=     0.197 Goal=   None    Shift=    0.000
 RMSDP=1.27D-05 MaxDP=1.31D-03 DE=-4.04D-04 OVMax= 1.11D-03

 Cycle   7  Pass 1  IDiag  1:
 RMSU=  7.81D-06    CP:  9.67D-01  1.09D+00  7.90D-01  6.96D-01  6.48D-01
                    CP:  6.49D-01
 E= -1171.27179928644     Delta-E=       -0.000031246058 Rises=F Damp=F
 DIIS: error= 5.91D-05 at cycle   7 NSaved=   7.
 NSaved= 7 IEnMin= 7 EnMin= -1171.27179928644     IErMin= 7 ErrMin= 5.91D-05
 ErrMax= 5.91D-05  0.00D+00 EMaxC= 1.00D-01 BMatC= 1.96D-06 BMatP= 4.20D-05
 IDIUse=1 WtCom= 1.00D+00 WtEn= 0.00D+00
 Coeff-Com: -0.524D-03-0.792D-03 0.846D-02 0.328D-01 0.103D+00 0.278D+00
 Coeff-Com:  0.579D+00
 Coeff:     -0.524D-03-0.792D-03 0.846D-02 0.328D-01 0.103D+00 0.278D+00
 Coeff:      0.579D+00
 Gap=     0.197 Goal=   None    Shift=    0.000
 RMSDP=3.55D-06 MaxDP=2.04D-04 DE=-3.12D-05 OVMax= 1.97D-04

 Cycle   8  Pass 1  IDiag  1:
 RMSU=  2.60D-06    CP:  9.67D-01  1.09D+00  7.90D-01  6.96D-01  6.64D-01
                    CP:  6.74D-01  7.86D-01
 E= -1171.27180088073     Delta-E=       -0.000001594296 Rises=F Damp=F
 DIIS: error= 9.50D-06 at cycle   8 NSaved=   8.
 NSaved= 8 IEnMin= 8 EnMin= -1171.27180088073     IErMin= 8 ErrMin= 9.50D-06
 ErrMax= 9.50D-06  0.00D+00 EMaxC= 1.00D-01 BMatC= 1.34D-07 BMatP= 1.96D-06
 IDIUse=1 WtCom= 1.00D+00 WtEn= 0.00D+00
 Coeff-Com: -0.932D-04-0.201D-03 0.139D-03 0.235D-02 0.139D-01 0.521D-01
 Coeff-Com:  0.243D+00 0.689D+00
 Coeff:     -0.932D-04-0.201D-03 0.139D-03 0.235D-02 0.139D-01 0.521D-01
 Coeff:      0.243D+00 0.689D+00
 Gap=     0.197 Goal=   None    Shift=    0.000
 RMSDP=1.09D-06 MaxDP=7.99D-05 DE=-1.59D-06 OVMax= 6.29D-05

 Cycle   9  Pass 1  IDiag  1:
 RMSU=  7.20D-07    CP:  9.67D-01  1.09D+00  7.90D-01  6.97D-01  6.62D-01
                    CP:  6.78D-01  8.40D-01  7.87D-01
 E= -1171.27180099404     Delta-E=       -0.000000113313 Rises=F Damp=F
 DIIS: error= 2.66D-06 at cycle   9 NSaved=   9.
 NSaved= 9 IEnMin= 9 EnMin= -1171.27180099404     IErMin= 9 ErrMin= 2.66D-06
 ErrMax= 2.66D-06  0.00D+00 EMaxC= 1.00D-01 BMatC= 1.38D-08 BMatP= 1.34D-07
 IDIUse=1 WtCom= 1.00D+00 WtEn= 0.00D+00
 Coeff-Com: -0.819D-05-0.397D-04-0.594D-03-0.142D-02-0.102D-02 0.370D-02
 Coeff-Com:  0.699D-01 0.324D+00 0.606D+00
 Coeff:     -0.819D-05-0.397D-04-0.594D-03-0.142D-02-0.102D-02 0.370D-02
 Coeff:      0.699D-01 0.324D+00 0.606D+00
 Gap=     0.197 Goal=   None    Shift=    0.000
 RMSDP=3.38D-07 MaxDP=2.51D-05 DE=-1.13D-07 OVMax= 1.47D-05

 Cycle  10  Pass 1  IDiag  1:
 RMSU=  1.75D-07    CP:  9.67D-01  1.09D+00  7.90D-01  6.97D-01  6.63D-01
                    CP:  6.80D-01  8.42D-01  8.34D-01  7.05D-01
 E= -1171.27180100714     Delta-E=       -0.000000013092 Rises=F Damp=F
 DIIS: error= 5.07D-07 at cycle  10 NSaved=  10.
 NSaved=10 IEnMin=10 EnMin= -1171.27180100714     IErMin=10 ErrMin= 5.07D-07
 ErrMax= 5.07D-07  0.00D+00 EMaxC= 1.00D-01 BMatC= 5.75D-10 BMatP= 1.38D-08
 IDIUse=1 WtCom= 1.00D+00 WtEn= 0.00D+00
 Coeff-Com:  0.172D-05 0.393D-05-0.238D-03-0.720D-03-0.135D-02-0.247D-02
 Coeff-Com:  0.970D-02 0.765D-01 0.227D+00 0.691D+00
 Coeff:      0.172D-05 0.393D-05-0.238D-03-0.720D-03-0.135D-02-0.247D-02
 Coeff:      0.970D-02 0.765D-01 0.227D+00 0.691D+00
 Gap=     0.197 Goal=   None    Shift=    0.000
 RMSDP=7.60D-08 MaxDP=3.88D-06 DE=-1.31D-08 OVMax= 5.92D-06

 Cycle  11  Pass 1  IDiag  1:
 RMSU=  4.29D-08    CP:  9.67D-01  1.09D+00  7.90D-01  6.97D-01  6.63D-01
                    CP:  6.80D-01  8.46D-01  8.41D-01  7.42D-01  7.81D-01
 E= -1171.27180100764     Delta-E=       -0.000000000502 Rises=F Damp=F
 DIIS: error= 2.59D-07 at cycle  11 NSaved=  11.
 NSaved=11 IEnMin=11 EnMin= -1171.27180100764     IErMin=11 ErrMin= 2.59D-07
 ErrMax= 2.59D-07  0.00D+00 EMaxC= 1.00D-01 BMatC= 7.34D-11 BMatP= 5.75D-10
 IDIUse=1 WtCom= 1.00D+00 WtEn= 0.00D+00
 Coeff-Com:  0.119D-05 0.390D-05-0.837D-04-0.275D-03-0.614D-03-0.149D-02
 Coeff-Com:  0.311D-03 0.162D-01 0.697D-01 0.333D+00 0.583D+00
 Coeff:      0.119D-05 0.390D-05-0.837D-04-0.275D-03-0.614D-03-0.149D-02
 Coeff:      0.311D-03 0.162D-01 0.697D-01 0.333D+00 0.583D+00
 Gap=     0.197 Goal=   None    Shift=    0.000
 RMSDP=2.13D-08 MaxDP=1.43D-06 DE=-5.02D-10 OVMax= 3.32D-06

 Cycle  12  Pass 1  IDiag  1:
 RMSU=  1.44D-08    CP:  9.67D-01  1.09D+00  7.90D-01  6.97D-01  6.63D-01
                    CP:  6.80D-01  8.47D-01  8.42D-01  7.47D-01  8.13D-01
                    CP:  7.14D-01
 E= -1171.27180100768     Delta-E=       -0.000000000036 Rises=F Damp=F
 DIIS: error= 8.99D-08 at cycle  12 NSaved=  12.
 NSaved=12 IEnMin=12 EnMin= -1171.27180100768     IErMin=12 ErrMin= 8.99D-08
 ErrMax= 8.99D-08  0.00D+00 EMaxC= 1.00D-01 BMatC= 5.60D-12 BMatP= 7.34D-11
 IDIUse=1 WtCom= 1.00D+00 WtEn= 0.00D+00
 Coeff-Com:  0.239D-06 0.129D-05-0.724D-05-0.304D-04-0.929D-04-0.331D-03
 Coeff-Com: -0.916D-03-0.225D-02 0.222D-02 0.598D-01 0.253D+00 0.689D+00
 Coeff:      0.239D-06 0.129D-05-0.724D-05-0.304D-04-0.929D-04-0.331D-03
 Coeff:     -0.916D-03-0.225D-02 0.222D-02 0.598D-01 0.253D+00 0.689D+00
 Gap=     0.197 Goal=   None    Shift=    0.000
 RMSDP=6.51D-09 MaxDP=4.71D-07 DE=-3.59D-11 OVMax= 9.68D-07

 Error on total polarization charges =  0.06230
 SCF Done:  E(RPBE1PBE) =  -1171.27180101     A.U. after   12 cycles
            NFock= 12  Conv=0.65D-08     -V/T= 2.0109
 KE= 1.158688144970D+03 PE=-8.228194654385D+03 EE= 3.129165435857D+03
 SMD-CDS (non-electrostatic) energy       (kcal/mol) =       6.35
 (included in total energy above)
 Leave Link  502 at Tue Mar 16 05:21:10 2021, MaxMem=  6174015488 cpu:            4918.8 elap:             289.2
 (Enter /opt/g16avx/l601.exe)
 Copying SCF densities to generalized density rwf, IOpCl= 0 IROHF=0.

 **********************************************************************

            Population analysis using the SCF density.

 **********************************************************************

 Orbital symmetries:
       Occupied  (A) (A) (A) (A) (A) (A) (A) (A) (A) (A) (A) (A)
                 (A) (A) (A) (A) (A) (A) (A) (A) (A) (A) (A) (A)
                 (A) (A) (A) (A) (A) (A) (A) (A) (A) (A) (A) (A)
                 (A) (A) (A) (A) (A) (A) (A) (A) (A) (A) (A) (A)
                 (A) (A) (A) (A) (A) (A) (A) (A) (A) (A) (A) (A)
                 (A) (A) (A) (A) (A) (A) (A) (A) (A) (A) (A) (A)
                 (A) (A) (A) (A) (A) (A) (A) (A) (A) (A) (A) (A)
                 (A) (A) (A) (A) (A) (A) (A) (A) (A) (A) (A) (A)
                 (A) (A) (A) (A) (A)
       Virtual   (A) (A) (A) (A) (A) (A) (A) (A) (A) (A) (A) (A)
                 (A) (A) (A) (A) (A) (A) (A) (A) (A) (A) (A) (A)
                 (A) (A) (A) (A) (A) (A) (A) (A) (A) (A) (A) (A)
                 (A) (A) (A) (A) (A) (A) (A) (A) (A) (A) (A) (A)
                 (A) (A) (A) (A) (A) (A) (A) (A) (A) (A) (A) (A)
                 (A) (A) (A) (A) (A) (A) (A) (A) (A) (A) (A) (A)
                 (A) (A) (A) (A) (A) (A) (A) (A) (A) (A) (A) (A)
                 (A) (A) (A) (A) (A) (A) (A) (A) (A) (A) (A) (A)
                 (A) (A) (A) (A) (A) (A) (A) (A) (A) (A) (A) (A)
                 (A) (A) (A) (A) (A) (A) (A) (A) (A) (A) (A) (A)
                 (A) (A) (A) (A) (A) (A) (A) (A) (A) (A) (A) (A)
                 (A) (A) (A) (A) (A) (A) (A) (A) (A) (A) (A) (A)
                 (A) (A) (A) (A) (A) (A) (A) (A) (A) (A) (A) (A)
                 (A) (A) (A) (A) (A) (A) (A) (A) (A) (A) (A) (A)
                 (A) (A) (A) (A) (A) (A) (A) (A) (A) (A) (A) (A)
                 (A) (A) (A) (A) (A) (A) (A) (A) (A) (A) (A) (A)
                 (A) (A) (A) (A) (A) (A) (A) (A) (A) (A) (A) (A)
                 (A) (A) (A) (A) (A) (A) (A) (A) (A) (A) (A) (A)
                 (A) (A) (A) (A) (A) (A) (A) (A) (A) (A) (A) (A)
                 (A) (A) (A) (A) (A) (A) (A) (A) (A) (A) (A) (A)
                 (A) (A) (A) (A) (A) (A) (A) (A) (A) (A) (A) (A)
                 (A) (A) (A) (A) (A) (A) (A) (A) (A) (A) (A) (A)
                 (A) (A) (A) (A) (A) (A) (A) (A) (A) (A) (A) (A)
                 (A) (A) (A) (A) (A) (A) (A) (A) (A) (A) (A) (A)
                 (A) (A) (A) (A) (A) (A) (A) (A) (A) (A) (A) (A)
                 (A) (A) (A) (A) (A) (A) (A) (A) (A) (A) (A) (A)
                 (A) (A) (A) (A) (A) (A) (A) (A) (A) (A) (A) (A)
                 (A) (A) (A) (A) (A) (A) (A) (A) (A) (A) (A) (A)
                 (A) (A) (A) (A) (A) (A) (A) (A) (A) (A) (A) (A)
                 (A) (A) (A) (A) (A) (A) (A) (A) (A) (A) (A) (A)
                 (A) (A) (A) (A) (A) (A) (A) (A) (A) (A) (A) (A)
                 (A) (A) (A) (A) (A) (A) (A) (A) (A) (A) (A) (A)
                 (A) (A) (A) (A) (A) (A) (A) (A) (A) (A) (A) (A)
                 (A) (A) (A) (A) (A) (A) (A) (A) (A) (A) (A) (A)
                 (A) (A) (A) (A) (A) (A) (A) (A) (A) (A) (A) (A)
                 (A) (A) (A) (A) (A) (A) (A) (A) (A) (A) (A) (A)
                 (A) (A) (A) (A) (A) (A) (A) (A) (A) (A) (A) (A)
                 (A) (A) (A)
 The electronic state is 1-A.
 Alpha  occ. eigenvalues --  -19.29096 -19.24404 -14.52453 -14.40619 -14.36874
 Alpha  occ. eigenvalues --  -10.43082 -10.31801 -10.31232 -10.28980 -10.28669
 Alpha  occ. eigenvalues --  -10.26422 -10.26023 -10.25957 -10.25783 -10.25681
 Alpha  occ. eigenvalues --  -10.24959 -10.24762 -10.23739 -10.23726 -10.23683
 Alpha  occ. eigenvalues --  -10.23669 -10.23660 -10.22687 -10.22685 -10.22626
 Alpha  occ. eigenvalues --  -10.22370 -10.22194  -1.17985  -1.09156  -1.05098
 Alpha  occ. eigenvalues --   -0.96622  -0.92418  -0.87587  -0.85016  -0.84445
 Alpha  occ. eigenvalues --   -0.83960  -0.77489  -0.76099  -0.73925  -0.73854
 Alpha  occ. eigenvalues --   -0.72173  -0.71508  -0.71248  -0.71174  -0.70509
 Alpha  occ. eigenvalues --   -0.67767  -0.65702  -0.62431  -0.61711  -0.60179
 Alpha  occ. eigenvalues --   -0.60066  -0.59613  -0.56080  -0.54749  -0.53372
 Alpha  occ. eigenvalues --   -0.53023  -0.52597  -0.51246  -0.51218  -0.51061
 Alpha  occ. eigenvalues --   -0.50026  -0.49356  -0.48812  -0.47730  -0.47390
 Alpha  occ. eigenvalues --   -0.46410  -0.45921  -0.45158  -0.44113  -0.43393
 Alpha  occ. eigenvalues --   -0.43297  -0.42501  -0.42127  -0.41663  -0.41351
 Alpha  occ. eigenvalues --   -0.40571  -0.40477  -0.40190  -0.39826  -0.39665
 Alpha  occ. eigenvalues --   -0.38915  -0.38664  -0.38268  -0.38204  -0.38067
 Alpha  occ. eigenvalues --   -0.37996  -0.37890  -0.37393  -0.37044  -0.36636
 Alpha  occ. eigenvalues --   -0.35364  -0.35332  -0.34566  -0.34115  -0.33866
 Alpha  occ. eigenvalues --   -0.32862  -0.32009  -0.26997  -0.26565  -0.24670
 Alpha  occ. eigenvalues --   -0.21121
 Alpha virt. eigenvalues --   -0.01447  -0.00944  -0.00625   0.04925   0.07104
 Alpha virt. eigenvalues --    0.07728   0.08134   0.08402   0.08705   0.09161
 Alpha virt. eigenvalues --    0.09241   0.09611   0.10247   0.11196   0.11505
 Alpha virt. eigenvalues --    0.12596   0.12870   0.13525   0.13623   0.13669
 Alpha virt. eigenvalues --    0.14193   0.14331   0.14497   0.14904   0.15217
 Alpha virt. eigenvalues --    0.15470   0.15737   0.16125   0.16394   0.16700
 Alpha virt. eigenvalues --    0.16972   0.17209   0.18021   0.18084   0.18360
 Alpha virt. eigenvalues --    0.18443   0.18957   0.19344   0.20025   0.20198
 Alpha virt. eigenvalues --    0.20751   0.21266   0.21544   0.21922   0.22176
 Alpha virt. eigenvalues --    0.22567   0.23407   0.23709   0.24632   0.25068
 Alpha virt. eigenvalues --    0.25097   0.25413   0.26136   0.26312   0.26648
 Alpha virt. eigenvalues --    0.27379   0.28218   0.29024   0.29519   0.30431
 Alpha virt. eigenvalues --    0.32018   0.32491   0.33425   0.33838   0.35812
 Alpha virt. eigenvalues --    0.37015   0.38801   0.40039   0.41016   0.41794
 Alpha virt. eigenvalues --    0.42659   0.42993   0.43253   0.43749   0.44355
 Alpha virt. eigenvalues --    0.44881   0.45481   0.45959   0.46447   0.47025
 Alpha virt. eigenvalues --    0.47107   0.47482   0.48399   0.48790   0.49280
 Alpha virt. eigenvalues --    0.49849   0.51167   0.51970   0.52584   0.52734
 Alpha virt. eigenvalues --    0.53763   0.53937   0.55322   0.55836   0.55961
 Alpha virt. eigenvalues --    0.56967   0.57771   0.58243   0.58958   0.59143
 Alpha virt. eigenvalues --    0.59832   0.60406   0.60919   0.61325   0.61910
 Alpha virt. eigenvalues --    0.62861   0.63120   0.63381   0.63594   0.64032
 Alpha virt. eigenvalues --    0.64288   0.64683   0.64890   0.65480   0.65752
 Alpha virt. eigenvalues --    0.66352   0.66773   0.66948   0.66988   0.67317
 Alpha virt. eigenvalues --    0.67428   0.67554   0.68014   0.68274   0.68621
 Alpha virt. eigenvalues --    0.68901   0.68947   0.69330   0.69616   0.69870
 Alpha virt. eigenvalues --    0.70186   0.70421   0.70641   0.70982   0.71164
 Alpha virt. eigenvalues --    0.71312   0.71906   0.72124   0.72731   0.73035
 Alpha virt. eigenvalues --    0.73049   0.73402   0.73832   0.74214   0.74282
 Alpha virt. eigenvalues --    0.74919   0.75101   0.75497   0.75830   0.76528
 Alpha virt. eigenvalues --    0.76829   0.76951   0.77097   0.77673   0.78453
 Alpha virt. eigenvalues --    0.79087   0.79814   0.82012   0.82434   0.82571
 Alpha virt. eigenvalues --    0.83555   0.84283   0.86343   0.87372   0.88311
 Alpha virt. eigenvalues --    0.88642   0.90943   0.91160   0.91432   0.93615
 Alpha virt. eigenvalues --    0.94485   0.96036   0.96881   0.99231   0.99530
 Alpha virt. eigenvalues --    1.00915   1.03391   1.05187   1.05656   1.07446
 Alpha virt. eigenvalues --    1.07888   1.08875   1.09987   1.11001   1.11485
 Alpha virt. eigenvalues --    1.11935   1.13570   1.14095   1.15737   1.16186
 Alpha virt. eigenvalues --    1.17026   1.17403   1.18601   1.19535   1.19920
 Alpha virt. eigenvalues --    1.21369   1.22051   1.22967   1.23717   1.24648
 Alpha virt. eigenvalues --    1.25495   1.26559   1.27224   1.27894   1.28915
 Alpha virt. eigenvalues --    1.29413   1.30294   1.30898   1.31466   1.31619
 Alpha virt. eigenvalues --    1.32216   1.33086   1.34174   1.34748   1.36108
 Alpha virt. eigenvalues --    1.39117   1.41554   1.42840   1.44366   1.45850
 Alpha virt. eigenvalues --    1.48334   1.49190   1.49800   1.50807   1.51338
 Alpha virt. eigenvalues --    1.52572   1.54037   1.54266   1.54539   1.54684
 Alpha virt. eigenvalues --    1.54856   1.55598   1.56689   1.57674   1.58036
 Alpha virt. eigenvalues --    1.59400   1.60426   1.62106   1.62730   1.64038
 Alpha virt. eigenvalues --    1.64696   1.66924   1.67417   1.67937   1.68288
 Alpha virt. eigenvalues --    1.69221   1.69883   1.70864   1.71763   1.72579
 Alpha virt. eigenvalues --    1.72797   1.73517   1.74029   1.74187   1.75210
 Alpha virt. eigenvalues --    1.75500   1.75810   1.76442   1.76665   1.77060
 Alpha virt. eigenvalues --    1.77531   1.78208   1.78571   1.78785   1.79914
 Alpha virt. eigenvalues --    1.80040   1.80508   1.81548   1.81760   1.82201
 Alpha virt. eigenvalues --    1.82426   1.82815   1.83739   1.84491   1.84589
 Alpha virt. eigenvalues --    1.84899   1.84939   1.85473   1.85795   1.86045
 Alpha virt. eigenvalues --    1.86750   1.87518   1.87632   1.87898   1.88207
 Alpha virt. eigenvalues --    1.88523   1.88733   1.89273   1.91034   1.91360
 Alpha virt. eigenvalues --    1.91888   1.92750   1.93193   1.93938   1.94376
 Alpha virt. eigenvalues --    1.95444   1.95734   1.96151   1.96476   1.96673
 Alpha virt. eigenvalues --    1.98099   1.98329   1.99051   1.99570   2.00084
 Alpha virt. eigenvalues --    2.00484   2.00831   2.01441   2.01912   2.02338
 Alpha virt. eigenvalues --    2.03089   2.03800   2.04627   2.06485   2.07743
 Alpha virt. eigenvalues --    2.08512   2.08855   2.09466   2.09970   2.10957
 Alpha virt. eigenvalues --    2.12116   2.12583   2.13522   2.13618   2.14091
 Alpha virt. eigenvalues --    2.14561   2.15779   2.16233   2.16452   2.17304
 Alpha virt. eigenvalues --    2.17981   2.18825   2.19381   2.20043   2.20400
 Alpha virt. eigenvalues --    2.21171   2.22178   2.22292   2.23491   2.25008
 Alpha virt. eigenvalues --    2.27118   2.29250   2.29923   2.31322   2.32120
 Alpha virt. eigenvalues --    2.32333   2.34639   2.36288   2.36377   2.37056
 Alpha virt. eigenvalues --    2.37888   2.38963   2.39383   2.39549   2.40538
 Alpha virt. eigenvalues --    2.40639   2.41417   2.41903   2.43249   2.45304
 Alpha virt. eigenvalues --    2.45433   2.45993   2.47141   2.48731   2.49558
 Alpha virt. eigenvalues --    2.50589   2.51464   2.52365   2.53152   2.54207
[...]
 028,0.00000013,0.,-0.00000082,0.00000006,-0.00000008,0.,0.00007641,0.0
 0017804,0.00005470,-0.00007950,0.00012344,-0.00003366,-0.00001695,-0.0
 0003156,-0.00000768,0.00718448,0.00110792,0.00074493,0.00334566,0.0010
 7834,0.00315431,-0.00093020,-0.00024767,-0.00028805,-0.05603904,0.0412
 0475,0.05687144,0.00701161,0.00036782,0.00170101,0.00339199,0.00261052
 ,0.00194648,-0.00400756,-0.00070304,-0.00095127,-0.00104698,-0.0001280
 6,-0.00018165,0.04507724,0.00000439,-0.00000568,0.00000114,0.00000553,
 0.00000895,-0.00001363,0.00000686,0.00001398,0.00001977,0.00000284,-0.
 00000697,0.00000012,-0.00000079,-0.00000024,0.00000064,-0.00000665,-0.
 00000886,0.00001211,0.00000400,-0.00000953,0.00000318,-0.00000058,-0.0
 0000022,-0.00000051,0.00000728,-0.00003658,-0.00002112,-0.00000259,-0.
 00000596,-0.00000805,0.00004281,0.00010752,0.00006868,-0.00000580,-0.0
 0000180,0.00000851,0.00000515,-0.00000089,0.00000076,-0.00000941,-0.00
 000235,0.00000432,0.00000793,0.00000188,0.00000102,-0.00000458,-0.0000
 0102,-0.00000078,0.00000661,-0.00000099,0.00000055,-0.00000518,-0.0000
 0379,-0.00000243,0.00002995,-0.00022140,0.00001055,-0.00001120,0.00002
 132,-0.00000906,0.00000755,0.00000062,-0.00000538,-0.00000211,-0.00000
 670,0.00000757,0.00000399,-0.00000521,-0.00000285,0.00000220,0.0000027
 7,-0.00000128,0.00000654,0.00000013,-0.00000118,-0.00000225,0.00000086
 ,-0.00000675,-0.00000103,-0.00000016,0.00000044,-0.00000080,-0.0000016
 8,0.00000537,-0.00000668,0.00000358,-0.00000113,0.00000034,-0.00000017
 ,-0.00000046,0.00000031,-0.00000013,0.00000094,-0.00001629,-0.00000705
 ,-0.00000036,0.00000739,-0.00000037,0.00000068,0.00000459,0.00000648,-
 0.00000017,-0.00000277,-0.00000295,-0.00000011,0.00000058,0.00000032,-
 0.00000056,-0.00000016,0.,0.00000029,-0.00000009,-0.00000006,0.0000000
 3,0.00000020,0.00000014,0.00000025,0.00000043,0.00000062,0.00000005,-0
 .00000016,-0.00000004,0.00000007,-0.00000008,0.,0.00000012,0.00000020,
 0.00000008,-0.00000022,0.00000089,-0.00000017,-0.00000059,-0.00000023,
 0.00000003,0.00000017,-0.00000040,0.00000005,0.00000021,0.00000002,0.0
 0000038,0.,0.00009590,-0.00007361,-0.00141478,0.00008019,-0.00040270,0
 .00000978,-0.00002025,-0.00000548,0.00007449,0.00140381,-0.00461220,0.
 00238330,0.00701686,-0.01119943,-0.02497240,-0.00025045,-0.00046061,0.
 00079576,0.04114067,-0.15170591,-0.12982503,0.00050950,-0.00010575,0.0
 0277998,-0.00333162,0.01055146,0.01243299,-0.00081008,0.00147385,-0.00
 002027,-0.00012839,0.00003479,-0.00016098,-0.04507960,0.15560143,0.000
 00155,-0.00000216,0.00000026,0.00000200,0.00000316,-0.00000493,0.00000
 193,0.00000449,0.00000553,0.00000087,-0.00000232,0.00000017,-0.0000003
 2,-0.00000006,0.00000028,-0.00000180,-0.00000606,0.00000333,0.00000118
 ,-0.00000264,0.00000082,-0.00000025,-0.00000008,-0.00000009,-0.0000009
 8,-0.00001033,-0.00000473,-0.00000119,-0.00000140,-0.00000207,0.000009
 38,0.00003542,0.00001098,-0.00000216,-0.00000038,0.00000164,0.00000135
 ,-0.00000026,0.00000018,-0.00000254,-0.00000058,0.00000108,0.00000290,
 0.00000015,0.00000018,-0.00000331,-0.00000354,-0.00000114,0.00000142,-
 0.00000034,0.00000017,-0.00000189,-0.00000109,-0.00000057,0.00003244,-
 0.00008974,0.00000878,-0.00001696,0.00000889,-0.00000643,0.00000204,0.
 00000091,0.00000016,-0.00000094,0.00000025,0.00000214,0.00000004,-0.00
 000072,-0.00000100,-0.00000025,-0.00000011,0.00000004,0.00000348,0.000
 00140,-0.00000013,-0.00000317,-0.00000125,-0.00000228,-0.00000051,0.00
 000022,0.00000005,0.00000018,-0.00000087,0.00000168,-0.00000201,0.0000
 0132,-0.00000036,0.00000011,-0.00000007,-0.00000016,0.00000007,-0.0000
 0007,0.00000028,-0.00000569,-0.00000122,-0.00000027,0.00000280,-0.0000
 0047,0.00000024,0.00000205,0.00000185,-0.00000007,-0.00000154,-0.00000
 138,0.00000023,0.00000020,0.00000007,-0.00000024,-0.00000019,-0.000000
 03,0.00000018,-0.00000002,-0.00000008,0.00000008,0.00000022,0.00000014
 ,0.00000008,0.00000006,0.00000026,-0.00000009,-0.00000004,-0.00000005,
 0.00000005,-0.00000006,0.,0.00000007,0.00000015,0.00000008,-0.00000009
 ,0.00000046,-0.00000009,-0.00000073,-0.00000029,0.,0.00000014,-0.00000
 047,-0.00000014,0.00000032,0.00000031,0.00000025,0.,-0.00006724,0.0003
 5798,0.00013739,-0.00000610,0.00003395,0.00000063,0.00001758,-0.000048
 28,0.00000473,0.00091710,0.00145581,0.00147065,-0.00123260,0.00533653,
 0.00658479,-0.00029336,0.00070799,0.00003627,0.05686015,-0.12985978,-0
 .23615511,0.00154483,0.00369655,-0.00323329,0.00627266,-0.01789152,-0.
 01501622,-0.00087196,-0.00041783,0.00047147,-0.00018554,-0.00016455,-0
 .00003550,-0.06222876,0.13798589,0.24529793,-0.00000103,-0.00000015,0.
 00000071,-0.00000015,-0.00000014,-0.00000166,-0.00000226,-0.00000221,-
 0.00000517,-0.00000004,-0.00000041,0.00000032,-0.00000016,-0.00000033,
 0.00000012,0.00000630,-0.00000767,0.00000206,-0.00000069,0.00000188,-0
 .00000039,0.00000004,-0.00000022,0.00000015,-0.00000415,0.00001355,0.0
 0000437,-0.00000023,0.00000165,-0.00000050,0.00001594,-0.00004001,-0.0
 0006208,0.00000103,0.00000056,-0.00000149,-0.00000036,0.00000061,-0.00
 000002,0.00000065,0.,-0.00000147,-0.00000099,-0.00000213,0.00000082,0.
 00000532,-0.00000206,0.00000107,-0.00000104,0.,-0.00000008,0.00000059,
 0.00000055,0.00000022,-0.00007842,0.00001570,-0.00002595,-0.00000874,-
 0.00000068,-0.00001079,0.00000041,-0.00000343,0.00000208,0.00000161,-0
 .00000206,-0.00000249,-0.00000009,0.00000094,0.00000047,-0.00000051,-0
 .00000117,0.00000026,-0.00000054,0.00000002,0.00000109,0.00000089,0.00
 000083,-0.00000024,-0.00000009,-0.00000112,-0.00000003,-0.00000033,0.0
 0000049,-0.00000062,0.00000113,0.00000163,0.00000003,-0.00000012,-0.00
 000006,0.00000011,0.00000004,-0.00000017,-0.00000005,-0.00000025,0.000
 00581,-0.00000105,0.00000099,-0.00000191,0.00000043,0.00000028,-0.0000
 0391,0.00000125,-0.00000047,0.00000145,-0.00000063,0.00000002,-0.00000
 062,0.00000012,-0.00000003,0.00000009,0.,0.00000021,-0.00000016,0.0000
 0021,-0.00000004,0.00000007,-0.00000002,-0.00000006,-0.00000049,-0.000
 00016,0.00000021,-0.00000021,0.00000002,-0.00000004,0.00000027,0.00000
 025,-0.00000007,0.00000013,-0.00000003,0.00000048,-0.00000059,-0.00000
 032,-0.00000021,0.00000029,0.00000075,-0.00000009,-0.00000004,-0.00000
 039,0.00000023,0.00000005,-0.00000002,0.00017803,0.00024803,-0.0000698
 1,-0.00001968,-0.00004937,-0.00000245,-0.00006656,0.00013580,-0.000028
 07,0.00706298,0.00152907,0.00124954,-0.00097640,0.00002380,-0.00014786
 ,0.00458115,0.00187447,-0.00342909,0.00662586,0.00194283,0.00209818,-0
 .04417588,-0.01139966,0.03370127,0.00338221,-0.00332281,0.00624108,-0.
 00102136,-0.00017489,-0.00021310,-0.00406714,-0.00080916,-0.00087341,0
 .00008200,-0.00014873,0.00029883,0.03240533,0.00000379,-0.00000442,0.0
 0000020,0.00000628,0.00000678,-0.00001485,0.00000402,0.00001149,0.0000
 1389,0.00000264,-0.00000707,0.00000019,-0.00000072,0.00000004,0.000000
 51,-0.00000031,-0.00001403,0.00001834,0.00000310,-0.00000701,0.0000024
 8,-0.00000029,-0.00000026,-0.00000030,0.00000472,-0.00002229,-0.000017
 01,-0.00000033,-0.00000632,-0.00000749,0.00005871,0.00007800,0.0000096
 5,-0.00000612,-0.00000084,0.00000754,0.00000526,-0.00000101,0.00000061
 ,-0.00000906,-0.00000174,0.00000444,0.00000666,0.00000185,-0.00000080,
 -0.00000281,0.00000356,-0.00000238,0.00000523,-0.00000068,0.00000024,-
 0.00000429,-0.00000355,-0.00000189,0.00002810,-0.00017080,0.00001145,-
 0.00001277,-0.00000147,-0.00001915,0.00000591,0.00000020,-0.00000415,-
 0.00000707,0.00000358,0.00000916,0.00000204,-0.00000306,-0.00000354,0.
 00000107,0.00000139,-0.00000079,0.00000453,0.00000088,0.00000111,-0.00
 000049,-0.00000279,-0.00000445,-0.00000005,0.00000085,0.00000052,0.000
 00021,-0.00000183,0.00000411,-0.00000581,0.00000278,-0.00000088,0.0000
 0038,-0.00000026,-0.00000048,0.00000021,-0.00000001,0.00000065,-0.0000
 1372,-0.00000691,0.00000053,0.00000601,-0.00000002,0.00000010,0.000003
 71,0.00000582,-0.00000171,-0.00000220,-0.00000239,0.00000066,0.0000003
 9,0.00000057,-0.00000015,-0.00000004,-0.00000001,-0.00000013,-0.000000
 15,-0.00000004,-0.00000011,0.00000012,0.00000012,0.00000018,0.00000052
 ,0.00000042,0.00000057,-0.00000010,-0.00000003,-0.00000005,-0.00000014
 ,-0.00000011,-0.00000036,0.00000019,0.00000005,-0.00000023,0.00000084,
 -0.00000013,0.00000089,-0.00000041,0.00000007,-0.00000040,-0.00000021,
 0.00000008,-0.00000019,-0.00000008,0.00000036,-0.00000011,-0.00046061,
 0.00012495,0.00123696,-0.00000309,0.00002254,-0.00007247,0.00003330,-0
 .00042422,0.00013023,0.00209628,-0.00496729,-0.00038054,0.00007837,-0.
 00074316,-0.00065937,-0.00388994,-0.00680391,0.02810065,0.00174715,-0.
 00135199,-0.00272482,-0.01148505,-0.10547492,0.10768975,0.00250111,0.0
 1056255,-0.01773678,-0.00018201,0.00008024,0.00007865,-0.00074775,0.00
 145216,-0.00045640,0.00012804,0.00037395,-0.00083622,0.01091777,0.1064
 3472,-0.00000281,0.00000306,0.00000016,-0.00000315,-0.00000469,0.00000
 685,-0.00000376,-0.00000808,-0.00001092,-0.00000146,0.00000350,0.00000
 006,0.00000047,-0.00000005,-0.00000021,0.00000294,0.00000493,-0.000006
 48,-0.00000207,0.00000497,-0.00000141,0.00000028,0.00000004,0.00000025
 ,-0.00000109,0.00002236,0.00000943,0.00000112,0.00000344,0.00000324,-0
 .00001318,-0.00006489,-0.00003869,0.00000435,0.00000046,-0.00000368,-0
 .00000258,0.00000070,-0.00000023,0.00000501,0.00000101,-0.00000248,-0.
 00000466,-0.00000144,0.00000029,0.00000448,0.00000244,0.00000051,-0.00
 000286,0.00000039,-0.00000018,0.00000248,0.00000185,0.00000099,-0.0000
 6368,0.00013818,-0.00002009,0.00000572,-0.00000378,0.00000576,-0.00000
 421,-0.00000426,0.00000184,0.00000556,-0.00000082,-0.00000463,-0.00000
 119,0.00000236,0.00000220,-0.00000006,-0.00000096,0.00000040,-0.000003
 53,-0.00000116,0.00000087,0.00000134,0.00000151,0.00000281,0.00000030,
 -0.00000050,-0.00000015,0.00000009,0.00000106,-0.00000237,0.00000371,-
 0.00000114,0.00000052,-0.00000024,0.00000010,0.00000031,-0.00000010,-0
 .00000001,-0.00000043,0.00000827,0.00000535,-0.00000037,-0.00000352,-0
 .00000045,-0.00000006,-0.00000275,-0.00000503,0.00000107,0.00000190,0.
 00000299,-0.00000020,-0.00000012,-0.00000076,0.00000006,0.00000007,0.0
 0000006,0.00000004,0.00000017,0.,0.00000018,-0.00000024,-0.00000011,-0
 .00000014,-0.00000027,-0.00000050,-0.00000055,0.00000013,0.00000002,0.
 00000007,0.00000024,0.00000024,0.00000044,-0.00000037,-0.00000013,0.00
 000014,-0.00000060,-0.00000027,-0.00000136,0.00000055,0.00000041,0.000
 00107,0.00000040,-0.00000002,-0.00000017,-0.00000033,-0.00000043,0.000
 00007,0.00014700,-0.00025873,-0.00001301,-0.00002264,0.00001904,-0.000
 00474,-0.00003728,0.00010600,-0.00002953,0.00103120,0.00031900,0.00198
 468,-0.00020190,-0.00059350,0.00037539,0.00093349,-0.00222320,0.001024
 54,0.00224084,-0.00362637,-0.00169232,0.03374891,0.10777446,-0.2942887
 4,0.00189966,0.01259033,-0.01506333,-0.00020007,0.00008414,-0.00009447
 ,-0.00092300,-0.00005917,0.00048652,0.00010928,0.00058677,-0.00083419,
 -0.03762577,-0.11493144,0.30715342,-0.00000230,0.00000087,0.00000012,-
 0.00000185,-0.00000290,0.00000382,-0.00000227,-0.00000434,-0.00000631,
 -0.00000054,0.00000180,0.00000044,0.00000016,-0.00000005,-0.00000005,-
 0.00000116,0.00000933,-0.00000574,-0.00000080,0.00000260,-0.00000128,0
 .00000014,-0.00000008,0.00000009,-0.00000259,0.00001951,0.00000494,0.0
 0000139,0.00000129,0.00000073,-0.00003894,-0.00002095,-0.00002237,0.00
 000211,0.00000141,-0.00000032,-0.00000082,0.00000008,-0.00000010,0.000
 00134,0.00000025,-0.00000104,-0.00000181,-0.00000180,-0.00000010,0.000
 00476,-0.00000012,0.00000081,-0.00000087,0.00000005,-0.00000011,0.0000
 0055,0.00000035,0.00000067,-0.00006276,0.00017703,-0.00001201,-0.00000
 430,0.00001542,0.00001009,0.00000287,-0.00000441,0.00000086,-0.0000008
 3,0.00000268,-0.00000009,0.00000055,0.,0.00000096,-0.00000011,0.000001
 08,-0.00000007,0.00000151,-0.00000271,0.00000207,-0.00000140,0.0000005
 5,-0.00000067,0.,0.00000030,-0.00000028,0.00000047,-0.00000033,-0.0000
 0099,0.00000228,0.00000086,0.00000009,-0.00000010,-0.00000009,0.000000
 16,-0.00000008,-0.00000011,-0.00000022,0.00000217,0.00000482,-0.000000
 47,-0.00000045,-0.00000126,0.00000012,-0.00000074,-0.00000394,0.000000
 44,0.00000037,0.00000202,-0.00000022,-0.00000004,-0.00000054,0.0000001
 9,0.00000002,0.00000012,-0.00000014,0.00000017,-0.00000012,0.00000011,
 -0.00000015,0.00000003,-0.00000005,-0.00000003,-0.00000055,0.00000001,
 0.00000019,-0.00000014,-0.00000006,0.00000003,0.00000016,0.00000008,-0
 .00000016,0.00000003,0.00000001,0.00000026,-0.00000058,0.00000013,0.00
 000003,0.00000027,0.00000055,0.00000008,0.00000008,-0.00000059,-0.0000
 0009,-0.00000006,-0.00000002,-0.00097172,-0.00003897,-0.00023766,0.000
 04201,-0.00005786,-0.00009118,-0.00000022,-0.00001327,0.00008387,-0.00
 091952,-0.00029896,0.00002310,0.00696527,0.00067147,0.00196277,0.00666
 317,0.00148150,0.00241697,0.00425235,-0.00396751,0.00100705,0.00316862
 ,0.00681036,-0.00146840,-0.04349128,0.03586237,-0.00065464,0.00016157,
 -0.00020591,0.00007665,0.00010092,0.00029166,-0.00004693,-0.00401888,-
 0.00055652,-0.00104623,-0.00392567,-0.00082101,-0.00103045,0.03207711,
 0.00000228,-0.00000312,0.00000064,0.00000258,0.00000369,-0.00000534,0.
 00000226,0.00000519,0.00000571,0.00000119,-0.00000286,0.00000004,-0.00
 000044,-0.00000008,0.00000025,-0.00000176,-0.00000551,0.00000471,0.000
 00149,-0.00000309,0.00000112,-0.00000025,-0.00000005,-0.00000015,-0.00
 000045,-0.00000971,-0.00000616,-0.00000131,-0.00000196,-0.00000326,0.0
 0000779,0.00003824,0.00000958,-0.00000282,0.00000004,0.00000270,0.0000
 0201,-0.00000046,0.00000024,-0.00000412,-0.00000077,0.00000155,0.00000
 406,0.00000038,0.00000030,-0.00000170,-0.00000306,0.00000030,0.0000021
 7,-0.00000047,0.00000023,-0.00000219,-0.00000155,-0.00000084,0.0000226
 0,-0.00006257,0.00001363,-0.00001247,0.00000317,-0.00000589,0.00000385
 ,0.00000208,-0.00000181,-0.00000181,-0.00000209,0.00000405,0.00000132,
 -0.00000250,-0.00000125,0.00000010,0.00000094,-0.00000029,0.00000330,0
 .00000139,0.00000059,-0.00000133,-0.00000162,-0.00000248,-0.00000036,0
 .00000061,-0.00000006,0.00000019,-0.00000135,0.00000196,-0.00000278,0.
 00000175,-0.00000041,0.00000015,-0.00000011,-0.00000023,0.00000012,-0.
 00000008,0.00000039,-0.00000783,-0.00000252,-0.00000015,0.00000371,-0.
 00000038,0.00000026,0.00000277,0.00000314,-0.00000030,-0.00000201,-0.0
 0000227,0.00000018,0.00000015,0.00000031,-0.00000016,-0.00000016,-0.00
 000004,0.00000010,-0.00000006,-0.00000006,0.,0.00000028,0.00000017,0.0
 0000012,0.00000010,0.00000037,0.00000006,-0.00000006,-0.00000006,0.000
 00002,-0.00000015,-0.00000008,-0.00000005,0.00000030,0.00000014,-0.000
 00011,0.00000046,-0.00000003,-0.00000014,-0.00000054,-0.00000019,-0.00
 000022,-0.00000057,-0.00000011,0.00000028,0.00000054,0.00000043,0.,-0.
 00017338,0.00008266,-0.00004209,0.00002206,-0.00003259,-0.00002638,0.0
 0000635,-0.00004526,0.00004957,-0.00017475,0.00053911,-0.00020065,0.00
 040489,0.00114100,0.00250090,0.00157607,0.00023361,-0.00302293,0.00204
 523,-0.00692963,-0.00247405,0.00106852,-0.01125916,0.00569780,0.035801
 22,-0.33931623,0.03461412,0.00009933,-0.00046453,-0.00010765,0.0000536
 6,-0.00067083,0.00026066,-0.00065271,0.00069148,-0.00028785,-0.0007417
 8,0.00085459,0.00011074,-0.03935528,0.35522250,-0.00000066,0.00000030,
 0.00000026,-0.00000086,-0.00000033,0.00000224,-0.00000037,-0.00000143,
 -0.00000100,-0.00000025,0.00000085,-0.00000002,0.00000004,-0.00000005,
 -0.00000003,0.00000055,0.00000359,-0.00000254,-0.00000020,0.00000059,-
 0.00000034,0.00000005,0.,0.00000003,-0.00000111,0.00000310,0.00000116,
 0.00000009,0.00000085,0.00000016,-0.00001101,-0.00000919,0.00000211,0.
 00000098,0.00000007,-0.00000043,-0.00000034,0.,-0.00000003,0.00000030,
 0.00000021,-0.00000046,-0.00000068,-0.00000050,0.00000020,0.00000220,-
 0.00000029,-0.00000002,-0.00000041,0.00000014,-0.00000003,0.00000044,0
 .00000030,0.00000023,-0.00001181,0.00003630,0.00001062,0.00001592,-0.0
 0000542,0.00000140,0.00000099,0.00000055,-0.00000019,-0.00000130,0.000
 00067,0.00000018,0.00000017,-0.00000061,0.00000046,-0.00000020,0.00000
 016,0.00000003,-0.00000056,-0.00000236,-0.00000056,0.00000112,0.000001
 24,0.00000025,0.00000002,-0.00000054,0.00000012,-0.00000031,0.00000095
 ,-0.00000034,0.00000070,0.00000014,0.00000018,-0.00000005,0.,0.0000000
 4,-0.00000001,-0.00000003,-0.00000006,0.00000095,0.00000135,0.00000002
 ,-0.00000031,-0.00000030,-0.00000008,-0.00000029,-0.00000110,0.,0.0000
 0015,0.00000053,0.00000004,-0.00000002,-0.00000011,0.00000005,0.000000
 04,0.00000007,-0.00000008,0.00000003,-0.00000004,0.,-0.00000007,0.0000
 0001,0.00000001,-0.00000002,-0.00000014,-0.00000003,0.00000005,-0.0000
 0002,-0.00000004,-0.00000003,-0.00000002,0.,-0.00000001,0.,0.00000006,
 -0.00000004,-0.00000004,0.00000001,-0.00000006,-0.00000007,0.00000010,
 0.00000013,0.00000010,-0.00000020,-0.00000004,-0.00000003,0.00000012,-
 0.00022834,0.00001110,0.00015325,-0.00000549,0.00005556,0.00000006,-0.
 00000356,-0.00005750,0.00004584,0.00004869,-0.00020961,-0.00103714,0.0
 0204851,0.00161728,-0.00428309,0.00233059,-0.00211396,-0.00318648,-0.0
 0347109,0.02780108,0.00135895,0.00294491,-0.02465484,0.00672604,-0.000
 62891,0.03464394,-0.06077611,-0.00013184,0.00130989,-0.00006529,0.0001
 5088,-0.00116947,0.00018206,-0.00097856,-0.00072640,0.00125671,-0.0011
 0061,0.00055537,0.00105095,-0.00096908,-0.03709188,0.05856064\\-0.0000
 0396,0.00000012,0.00000168,-0.00000694,0.00000245,-0.00000336,-0.00000
 414,0.00000282,0.00000004,-0.00000408,-0.00000173,0.00000011,-0.000005
 03,0.00000246,-0.00000118,0.00000561,-0.00000135,-0.00000879,-0.000005
 30,-0.00000138,-0.00000055,-0.00000530,0.00000077,-0.00000101,-0.00000
 463,-0.00000026,-0.00000389,-0.00000729,-0.00000244,-0.00001148,-0.000
 00116,0.00000122,0.00000833,-0.00000100,-0.00000364,-0.00000419,0.0000
 0054,-0.00000133,0.00000120,0.00000100,-0.00000003,0.00000182,-0.00000
 018,-0.00000119,0.00002231,-0.00000110,0.00000672,-0.00000144,-0.00000
 406,-0.00000090,0.00000017,-0.00000209,-0.00000341,0.00000154,0.000005
 75,0.00000568,-0.00000182,-0.00000319,-0.00000131,0.00000182,0.0000009
 6,0.00000327,-0.00000059,0.00000056,-0.00000010,0.00000047,-0.00000153
 ,0.00000151,-0.00000038,-0.00000230,0.00000178,-0.00000029,-0.00000177
 ,0.00000152,-0.00000088,-0.00000070,0.00000380,-0.00000168,-0.00000373
 ,0.00000278,-0.00000114,-0.00000338,0.00000070,-0.00000073,-0.00000481
 ,-0.00000261,-0.00000248,-0.00000496,-0.00000150,0.00000006,-0.0000030
 5,-0.00000219,0.00000208,0.00000109,-0.00000529,-0.00000512,-0.0000045
 6,-0.00000267,-0.00000044,0.00000351,-0.00000095,-0.00000283,0.0000016
 7,-0.00000480,0.00000565,-0.00000073,-0.00000686,0.00000171,0.00000110
 ,-0.00000496,0.00000137,-0.00000005,-0.00000652,0.00000170,0.00000267,
 -0.00000697,0.00000217,0.00000169,-0.00000680,0.00000193,0.00000046,-0
 .00000763,0.00000228,0.00000196,-0.00000547,0.00000212,0.00000197,-0.0
 0000580,0.00000243,0.00000358,-0.00000268,0.00000208,0.00000415,-0.000
 00308,0.00000128,0.00000342,-0.00000289,0.00000105,0.00000456,-0.00000
 443,0.00000167,-0.00001175,0.00001097,-0.00000667,0.00000182,0.0000045
 2,0.00000181,0.00000275,0.00000743,-0.00000147,-0.00000044,-0.00000175
 ,0.00000932,0.00000388,0.00000100,-0.00000198,0.00000663,0.00000593,-0
 .00000614,0.00000420,0.00000699,-0.00000281,0.00000537,0.00000132,-0.0
 0000311,0.00000597,0.00000574,0.00000108,0.00000341,0.00000543,-0.0000
 0276,0.00000350,0.00000459,0.00000031,0.00000541,0.00000494,-0.0000021
 9,0.00000631,0.00000426,-0.00000005,0.00000770,0.00000422,-0.00000018\
 \\@


 IF YOU WANT TO LEARN FROM THE THEORETICAL PHYSICISTS ABOUT THE
 METHODS WHICH THEY USE, I ADVISE YOU TO FOLLOW THIS PRINCIPLE VERY STRICTLY:
 DON'T LISTEN TO THEIR WORDS; PAY ATTENTION, INSTEAD, TO THEIR ACTIONS.
 -- A.EINSTEIN, 1934
 Job cpu time:       0 days 17 hours 42 minutes  4.3 seconds.
 Elapsed time:       0 days  0 hours 54 minutes  4.9 seconds.
 File lengths (MBytes):  RWF=   2066 Int=      0 D2E=      0 Chk=     43 Scr=      1
 Normal termination of Gaussian 16 at Tue Mar 16 09:04:52 2021.
