 Entering Gaussian System, Link 0=/opt/g16avx/g16
 Input=int_1_w.gjf
 Output=int_1_w.log
 Initial command:
 /opt/g16avx/l1.exe "/home/scratch/Gau-6983.inp" -scrdir="/home/scratch/"
 Entering Link 1 = /opt/g16avx/l1.exe PID=      6984.
  
 Copyright (c) 1988,1990,1992,1993,1995,1998,2003,2009,2016,
            Gaussian, Inc.  All Rights Reserved.
  
 This is part of the Gaussian(R) 16 program.  It is based on
 the Gaussian(R) 09 system (copyright 2009, Gaussian, Inc.),
 the Gaussian(R) 03 system (copyright 2003, Gaussian, Inc.),
 the Gaussian(R) 98 system (copyright 1998, Gaussian, Inc.),
 the Gaussian(R) 94 system (copyright 1995, Gaussian, Inc.),
 the Gaussian 92(TM) system (copyright 1992, Gaussian, Inc.),
 the Gaussian 90(TM) system (copyright 1990, Gaussian, Inc.),
 the Gaussian 88(TM) system (copyright 1988, Gaussian, Inc.),
 the Gaussian 86(TM) system (copyright 1986, Carnegie Mellon
 University), and the Gaussian 82(TM) system (copyright 1983,
 Carnegie Mellon University). Gaussian is a federally registered
 trademark of Gaussian, Inc.
  
 This software contains proprietary and confidential information,
 including trade secrets, belonging to Gaussian, Inc.
  
 This software is provided under written license and may be
 used, copied, transmitted, or stored only in accord with that
 written license.
  
 The following legend is applicable only to US Government
 contracts under FAR:
  
                    RESTRICTED RIGHTS LEGEND
  
 Use, reproduction and disclosure by the US Government is
 subject to restrictions as set forth in subparagraphs (a)
 and (c) of the Commercial Computer Software - Restricted
 Rights clause in FAR 52.227-19.
  
 Gaussian, Inc.
 340 Quinnipiac St., Bldg. 40, Wallingford CT 06492
  
  
 ---------------------------------------------------------------
 Warning -- This program may not be used in any manner that
 competes with the business of Gaussian, Inc. or will provide
 assistance to any competitor of Gaussian, Inc.  The licensee
 of this program is prohibited from giving any competitor of
 Gaussian, Inc. access to this program.  By using this program,
 the user acknowledges that Gaussian, Inc. is engaged in the
 business of creating and licensing software in the field of
 computational chemistry and represents and warrants to the
 licensee that it is not a competitor of Gaussian, Inc. and that
 it will not use this program in any manner prohibited above.
 ---------------------------------------------------------------
  

 Cite this work as:
 Gaussian 16, Revision A.03,
 M. J. Frisch, G. W. Trucks, H. B. Schlegel, G. E. Scuseria, 
 M. A. Robb, J. R. Cheeseman, G. Scalmani, V. Barone, 
 G. A. Petersson, H. Nakatsuji, X. Li, M. Caricato, A. V. Marenich, 
 J. Bloino, B. G. Janesko, R. Gomperts, B. Mennucci, H. P. Hratchian, 
 J. V. Ortiz, A. F. Izmaylov, J. L. Sonnenberg, D. Williams-Young, 
 F. Ding, F. Lipparini, F. Egidi, J. Goings, B. Peng, A. Petrone, 
 T. Henderson, D. Ranasinghe, V. G. Zakrzewski, J. Gao, N. Rega, 
 G. Zheng, W. Liang, M. Hada, M. Ehara, K. Toyota, R. Fukuda, 
 J. Hasegawa, M. Ishida, T. Nakajima, Y. Honda, O. Kitao, H. Nakai, 
 T. Vreven, K. Throssell, J. A. Montgomery, Jr., J. E. Peralta, 
 F. Ogliaro, M. J. Bearpark, J. J. Heyd, E. N. Brothers, K. N. Kudin, 
 V. N. Staroverov, T. A. Keith, R. Kobayashi, J. Normand, 
 K. Raghavachari, A. P. Rendell, J. C. Burant, S. S. Iyengar, 
 J. Tomasi, M. Cossi, J. M. Millam, M. Klene, C. Adamo, R. Cammi, 
 J. W. Ochterski, R. L. Martin, K. Morokuma, O. Farkas, 
 J. B. Foresman, and D. J. Fox, Gaussian, Inc., Wallingford CT, 2016.
 
 ******************************************
 Gaussian 16:  ES64L-G16RevA.03 25-Dec-2016
                16-Mar-2021 
 ******************************************
 %chk=int_1_w.chk
 %nprocshared=20
 Will use up to   20 processors via shared memory.
 %mem=46GB
 ----------------------------------------------------------------------
 #p opt PBE1PBE/DEF2SVP empiricaldispersion=gd3bj scrf=(SMD, solvent=Wa
 ter) freq=noraman
 ----------------------------------------------------------------------
 1/18=20,19=15,26=3,38=1/1,3;
 2/9=110,12=2,17=6,18=5,40=1/2;
 3/5=43,7=101,11=2,25=1,30=1,70=32201,71=1,72=1,74=-13,124=41/1,2,3;
 4//1;
 5/5=2,38=5,53=1/2;
 6/7=2,8=2,9=2,10=2,28=1/1;
 7//1,2,3,16;
 1/18=20,19=15,26=3/3(2);
 2/9=110/2;
 99//99;
 2/9=110/2;
 3/5=43,7=101,11=2,25=1,30=1,70=32205,71=1,72=1,74=-13,124=41/1,2,3;
 4/5=5,16=3,69=1/1;
 5/5=2,38=5,53=1/2;
 7//1,2,3,16;
 1/18=20,19=15,26=3/3(-5);
 2/9=110/2;
 6/7=2,8=2,9=2,10=2,19=2,28=1/1;
 99/9=1/99;
 Leave Link    1 at Tue Mar 16 12:33:53 2021, MaxMem=  6174015488 cpu:               1.8 elap:               0.1
 (Enter /opt/g16avx/l101.exe)
 ----
 Name
 ----
 Symbolic Z-matrix:
 Charge =  0 Multiplicity = 1
 N                     0.32487  -2.75923   0.69882 
 C                     1.23428  -2.28396   1.73078 
 C                     1.03188  -2.86824  -0.56843 
 H                     0.70144  -2.25633   2.69603 
 H                     2.06763  -2.99851   1.835 
 C                     1.77501  -0.88523   1.39647 
 H                     0.34663  -3.27899  -1.32872 
 H                     1.86594  -3.58036  -0.45707 
 C                     1.56331  -1.50264  -1.04265 
 C                     0.56805   0.03634   1.1949 
 C                     2.53262  -0.97584   0.04465 
 C                     0.35069  -0.56317  -1.12675 
 H                    -0.01171   0.14237   2.12451 
 H                     0.88757   1.04121   0.88235 
 N                    -0.33298  -0.49667   0.16842 
 H                     3.33424  -1.72458   0.15271 
 H                    -0.36888  -0.93006  -1.87312 
 H                     0.62448   0.46213  -1.42005 
 N                     3.14055   0.26955  -0.34326 
 H                     2.55622   0.92922  -0.83878 
 C                     2.66036  -0.36213   2.51255 
 H                     3.07032   0.6268    2.25959 
 H                     2.08863  -0.26806   3.44907 
 H                     3.50375  -1.04472   2.69947 
 C                     2.24437  -1.632    -2.39369 
 H                     2.60388  -0.65933  -2.75985 
 H                     3.11082  -2.30855  -2.32765 
 H                     1.54804  -2.04139  -3.14193 
 C                    -0.78184  -1.84978   0.561 
 H                    -1.32335  -1.74766   1.51205 
 H                    -1.47963  -2.20779  -0.20902 
 C                    -1.53961   0.39434   0.15622 
 O                    -2.28047  -0.02848  -0.71198 
 O                    -1.15489   1.76588  -0.03739 
 C                     0.03348   2.03219  -0.60917 
 O                     0.99496   1.32909  -0.42655 
 O                    -1.76624   0.34291   1.48942 
 O                    -0.01304   3.15648  -1.28965 
 C                     1.1048    3.6128   -2.11488 
 C                     0.55111   4.86764  -2.76926 
 H                    -0.32745   4.62754  -3.38543 
 H                     0.25306   5.60078  -2.00565 
 H                     1.31619   5.32424  -3.41267 
 C                     1.42838   2.55452  -3.15928 
 H                     1.83891   1.64816  -2.69663 
 H                     0.52082   2.28839  -3.72033 
 H                     2.17041   2.95362  -3.86553 
 C                     2.29594   3.94197  -1.22766 
 H                     2.0104    4.67802  -0.46139 
 H                     2.68071   3.04156  -0.73299 
 H                     3.0981    4.37815  -1.84043 
 C                    -3.11937   0.25714   2.01488 
 C                    -3.95395   1.412     1.4765 
 H                    -3.47299   2.3734    1.70937 
 H                    -4.07049   1.33822   0.38779 
 H                    -4.9507    1.40021   1.94135 
 C                    -3.74966  -1.09095   1.68859 
 H                    -3.85219  -1.22006   0.60453 
 H                    -3.13715  -1.91235   2.08839 
 H                    -4.74506  -1.15243   2.1531 
 C                    -2.90968   0.39619   3.51463 
 H                    -2.2643   -0.41292   3.88822 
 H                    -2.43332   1.35923   3.74946 
 H                    -3.87386   0.34367   4.04032 
 C                     4.54605   0.56865  -0.03338 
 H                     4.76314   0.26328   1.00042 
 H                     5.19753  -0.04537  -0.67187 
 C                     4.91577   2.05298  -0.2113 
 C                     5.38749   2.53745  -1.44301 
 C                     4.79096   2.9613    0.85346 
 C                     5.7222    3.88086  -1.60435 
 C                     5.12552   4.30483   0.69273 
 C                     5.59279   4.77106  -0.5371 
 H                     5.49191   1.8536   -2.27961 
 H                     4.4285    2.60919   1.81424 
 H                     6.08486   4.2327   -2.56596 
 H                     5.02085   4.98872   1.5302 
 H                     5.85352   5.8178   -0.66257 
 
 ITRead=  0  0  0  0  0  0  0  0  0  0  0  0  0  0  0  0  0  0  0  0
 ITRead=  0  0  0  0  0  0  0  0  0  0  0  0  0  0  0  0  0  0  0  0
 ITRead=  0  0  0  0  0  0  0  0  0  0  0  0  0  0  0  0  0  0  0  0
 ITRead=  0  0  0  0  0  0  0  0  0  0  0  0  0  0  0  0  0  0
 MicOpt= -1 -1 -1 -1 -1 -1 -1 -1 -1 -1 -1 -1 -1 -1 -1 -1 -1 -1 -1 -1
 MicOpt= -1 -1 -1 -1 -1 -1 -1 -1 -1 -1 -1 -1 -1 -1 -1 -1 -1 -1 -1 -1
 MicOpt= -1 -1 -1 -1 -1 -1 -1 -1 -1 -1 -1 -1 -1 -1 -1 -1 -1 -1 -1 -1
 MicOpt= -1 -1 -1 -1 -1 -1 -1 -1 -1 -1 -1 -1 -1 -1 -1 -1 -1 -1
 NAtoms=     78 NQM=       78 NQMF=       0 NMMI=      0 NMMIF=      0
                NMic=       0 NMicF=      0.
                    Isotopes and Nuclear Properties:
 (Nuclear quadrupole moments (NQMom) in fm**2, nuclear magnetic moments (NMagM)
  in nuclear magnetons)

  Atom         1           2           3           4           5           6           7           8           9          10
 IAtWgt=          14          12          12           1           1          12           1           1          12          12
 AtmWgt=  14.0030740  12.0000000  12.0000000   1.0078250   1.0078250  12.0000000   1.0078250   1.0078250  12.0000000  12.0000000
 NucSpn=           2           0           0           1           1           0           1           1           0           0
 AtZEff=  -0.0000000  -0.0000000  -0.0000000  -0.0000000  -0.0000000  -0.0000000  -0.0000000  -0.0000000  -0.0000000  -0.0000000
 NQMom=    2.0440000   0.0000000   0.0000000   0.0000000   0.0000000   0.0000000   0.0000000   0.0000000   0.0000000   0.0000000
 NMagM=    0.4037610   0.0000000   0.0000000   2.7928460   2.7928460   0.0000000   2.7928460   2.7928460   0.0000000   0.0000000
 AtZNuc=   7.0000000   6.0000000   6.0000000   1.0000000   1.0000000   6.0000000   1.0000000   1.0000000   6.0000000   6.0000000

  Atom        11          12          13          14          15          16          17          18          19          20
 IAtWgt=          12          12           1           1          14           1           1           1          14           1
 AtmWgt=  12.0000000  12.0000000   1.0078250   1.0078250  14.0030740   1.0078250   1.0078250   1.0078250  14.0030740   1.0078250
 NucSpn=           0           0           1           1           2           1           1           1           2           1
 AtZEff=  -0.0000000  -0.0000000  -0.0000000  -0.0000000  -0.0000000  -0.0000000  -0.0000000  -0.0000000  -0.0000000  -0.0000000
 NQMom=    0.0000000   0.0000000   0.0000000   0.0000000   2.0440000   0.0000000   0.0000000   0.0000000   2.0440000   0.0000000
 NMagM=    0.0000000   0.0000000   2.7928460   2.7928460   0.4037610   2.7928460   2.7928460   2.7928460   0.4037610   2.7928460
 AtZNuc=   6.0000000   6.0000000   1.0000000   1.0000000   7.0000000   1.0000000   1.0000000   1.0000000   7.0000000   1.0000000

  Atom        21          22          23          24          25          26          27          28          29          30
 IAtWgt=          12           1           1           1          12           1           1           1          12           1
 AtmWgt=  12.0000000   1.0078250   1.0078250   1.0078250  12.0000000   1.0078250   1.0078250   1.0078250  12.0000000   1.0078250
 NucSpn=           0           1           1           1           0           1           1           1           0           1
 AtZEff=  -0.0000000  -0.0000000  -0.0000000  -0.0000000  -0.0000000  -0.0000000  -0.0000000  -0.0000000  -0.0000000  -0.0000000
 NQMom=    0.0000000   0.0000000   0.0000000   0.0000000   0.0000000   0.0000000   0.0000000   0.0000000   0.0000000   0.0000000
 NMagM=    0.0000000   2.7928460   2.7928460   2.7928460   0.0000000   2.7928460   2.7928460   2.7928460   0.0000000   2.7928460
 AtZNuc=   6.0000000   1.0000000   1.0000000   1.0000000   6.0000000   1.0000000   1.0000000   1.0000000   6.0000000   1.0000000

  Atom        31          32          33          34          35          36          37          38          39          40
 IAtWgt=           1          12          16          16          12          16          16          16          12          12
 AtmWgt=   1.0078250  12.0000000  15.9949146  15.9949146  12.0000000  15.9949146  15.9949146  15.9949146  12.0000000  12.0000000
 NucSpn=           1           0           0           0           0           0           0           0           0           0
 AtZEff=  -0.0000000  -0.0000000  -0.0000000  -0.0000000  -0.0000000  -0.0000000  -0.0000000  -0.0000000  -0.0000000  -0.0000000
 NQMom=    0.0000000   0.0000000   0.0000000   0.0000000   0.0000000   0.0000000   0.0000000   0.0000000   0.0000000   0.0000000
 NMagM=    2.7928460   0.0000000   0.0000000   0.0000000   0.0000000   0.0000000   0.0000000   0.0000000   0.0000000   0.0000000
 AtZNuc=   1.0000000   6.0000000   8.0000000   8.0000000   6.0000000   8.0000000   8.0000000   8.0000000   6.0000000   6.0000000

  Atom        41          42          43          44          45          46          47          48          49          50
 IAtWgt=           1           1           1          12           1           1           1          12           1           1
 AtmWgt=   1.0078250   1.0078250   1.0078250  12.0000000   1.0078250   1.0078250   1.0078250  12.0000000   1.0078250   1.0078250
 NucSpn=           1           1           1           0           1           1           1           0           1           1
 AtZEff=  -0.0000000  -0.0000000  -0.0000000  -0.0000000  -0.0000000  -0.0000000  -0.0000000  -0.0000000  -0.0000000  -0.0000000
 NQMom=    0.0000000   0.0000000   0.0000000   0.0000000   0.0000000   0.0000000   0.0000000   0.0000000   0.0000000   0.0000000
 NMagM=    2.7928460   2.7928460   2.7928460   0.0000000   2.7928460   2.7928460   2.7928460   0.0000000   2.7928460   2.7928460
 AtZNuc=   1.0000000   1.0000000   1.0000000   6.0000000   1.0000000   1.0000000   1.0000000   6.0000000   1.0000000   1.0000000

  Atom        51          52          53          54          55          56          57          58          59          60
 IAtWgt=           1          12          12           1           1           1          12           1           1           1
 AtmWgt=   1.0078250  12.0000000  12.0000000   1.0078250   1.0078250   1.0078250  12.0000000   1.0078250   1.0078250   1.0078250
 NucSpn=           1           0           0           1           1           1           0           1           1           1
 AtZEff=  -0.0000000  -0.0000000  -0.0000000  -0.0000000  -0.0000000  -0.0000000  -0.0000000  -0.0000000  -0.0000000  -0.0000000
 NQMom=    0.0000000   0.0000000   0.0000000   0.0000000   0.0000000   0.0000000   0.0000000   0.0000000   0.0000000   0.0000000
 NMagM=    2.7928460   0.0000000   0.0000000   2.7928460   2.7928460   2.7928460   0.0000000   2.7928460   2.7928460   2.7928460
 AtZNuc=   1.0000000   6.0000000   6.0000000   1.0000000   1.0000000   1.0000000   6.0000000   1.0000000   1.0000000   1.0000000

  Atom        61          62          63          64          65          66          67          68          69          70
 IAtWgt=          12           1           1           1          12           1           1          12          12          12
 AtmWgt=  12.0000000   1.0078250   1.0078250   1.0078250  12.0000000   1.0078250   1.0078250  12.0000000  12.0000000  12.0000000
 NucSpn=           0           1           1           1           0           1           1           0           0           0
 AtZEff=  -0.0000000  -0.0000000  -0.0000000  -0.0000000  -0.0000000  -0.0000000  -0.0000000  -0.0000000  -0.0000000  -0.0000000
 NQMom=    0.0000000   0.0000000   0.0000000   0.0000000   0.0000000   0.0000000   0.0000000   0.0000000   0.0000000   0.0000000
 NMagM=    0.0000000   2.7928460   2.7928460   2.7928460   0.0000000   2.7928460   2.7928460   0.0000000   0.0000000   0.0000000
 AtZNuc=   6.0000000   1.0000000   1.0000000   1.0000000   6.0000000   1.0000000   1.0000000   6.0000000   6.0000000   6.0000000

  Atom        71          72          73          74          75          76          77          78
 IAtWgt=          12          12          12           1           1           1           1           1
 AtmWgt=  12.0000000  12.0000000  12.0000000   1.0078250   1.0078250   1.0078250   1.0078250   1.0078250
 NucSpn=           0           0           0           1           1           1           1           1
 AtZEff=  -0.0000000  -0.0000000  -0.0000000  -0.0000000  -0.0000000  -0.0000000  -0.0000000  -0.0000000
 NQMom=    0.0000000   0.0000000   0.0000000   0.0000000   0.0000000   0.0000000   0.0000000   0.0000000
 NMagM=    0.0000000   0.0000000   0.0000000   2.7928460   2.7928460   2.7928460   2.7928460   2.7928460
 AtZNuc=   6.0000000   6.0000000   6.0000000   1.0000000   1.0000000   1.0000000   1.0000000   1.0000000
 Leave Link  101 at Tue Mar 16 12:33:53 2021, MaxMem=  6174015488 cpu:               8.1 elap:               0.4
 (Enter /opt/g16avx/l103.exe)

 GradGradGradGradGradGradGradGradGradGradGradGradGradGradGradGradGradGrad
 Berny optimization.
 Initialization pass.
                           ----------------------------
                           !    Initial Parameters    !
                           ! (Angstroms and Degrees)  !
 --------------------------                            --------------------------
 ! Name  Definition              Value          Derivative Info.                !
 --------------------------------------------------------------------------------
 ! R1    R(1,2)                  1.4553         estimate D2E/DX2                !
 ! R2    R(1,3)                  1.4552         estimate D2E/DX2                !
 ! R3    R(1,29)                 1.4391         estimate D2E/DX2                !
 ! R4    R(2,4)                  1.1029         estimate D2E/DX2                !
 ! R5    R(2,5)                  1.1027         estimate D2E/DX2                !
 ! R6    R(2,6)                  1.5364         estimate D2E/DX2                !
 ! R7    R(3,7)                  1.1029         estimate D2E/DX2                !
 ! R8    R(3,8)                  1.1023         estimate D2E/DX2                !
 ! R9    R(3,9)                  1.5402         estimate D2E/DX2                !
 ! R10   R(6,10)                 1.5319         estimate D2E/DX2                !
 ! R11   R(6,11)                 1.5523         estimate D2E/DX2                !
 ! R12   R(6,21)                 1.5176         estimate D2E/DX2                !
 ! R13   R(9,11)                 1.549          estimate D2E/DX2                !
 ! R14   R(9,12)                 1.5363         estimate D2E/DX2                !
 ! R15   R(9,25)                 1.5185         estimate D2E/DX2                !
 ! R16   R(10,13)                1.1007         estimate D2E/DX2                !
 ! R17   R(10,14)                1.0998         estimate D2E/DX2                !
 ! R18   R(10,15)                1.4662         estimate D2E/DX2                !
 ! R19   R(11,16)                1.1022         estimate D2E/DX2                !
 ! R20   R(11,19)                1.4391         estimate D2E/DX2                !
 ! R21   R(12,15)                1.466          estimate D2E/DX2                !
 ! R22   R(12,17)                1.0998         estimate D2E/DX2                !
 ! R23   R(12,18)                1.101          estimate D2E/DX2                !
 ! R24   R(15,29)                1.4787         estimate D2E/DX2                !
 ! R25   R(15,32)                1.5            estimate D2E/DX2                !
 ! R26   R(19,20)                1.011          estimate D2E/DX2                !
 ! R27   R(19,65)                1.47           estimate D2E/DX2                !
 ! R28   R(21,22)                1.1            estimate D2E/DX2                !
 ! R29   R(21,23)                1.1013         estimate D2E/DX2                !
 ! R30   R(21,24)                1.101          estimate D2E/DX2                !
 ! R31   R(25,26)                1.0997         estimate D2E/DX2                !
 ! R32   R(25,27)                1.1013         estimate D2E/DX2                !
 ! R33   R(25,28)                1.1011         estimate D2E/DX2                !
 ! R34   R(29,30)                1.0992         estimate D2E/DX2                !
 ! R35   R(29,31)                1.0991         estimate D2E/DX2                !
 ! R36   R(32,33)                1.2171         estimate D2E/DX2                !
 ! R37   R(32,34)                1.4376         estimate D2E/DX2                !
 ! R38   R(32,37)                1.3533         estimate D2E/DX2                !
 ! R39   R(34,35)                1.3454         estimate D2E/DX2                !
 ! R40   R(35,36)                1.2051         estimate D2E/DX2                !
 ! R41   R(35,38)                1.315          estimate D2E/DX2                !
 ! R42   R(37,52)                1.4541         estimate D2E/DX2                !
 ! R43   R(38,39)                1.4625         estimate D2E/DX2                !
 ! R44   R(39,40)                1.5197         estimate D2E/DX2                !
 ! R45   R(39,44)                1.5216         estimate D2E/DX2                !
 ! R46   R(39,48)                1.5213         estimate D2E/DX2                !
 ! R47   R(40,41)                1.0996         estimate D2E/DX2                !
 ! R48   R(40,42)                1.0997         estimate D2E/DX2                !
 ! R49   R(40,43)                1.099          estimate D2E/DX2                !
 ! R50   R(44,45)                1.0973         estimate D2E/DX2                !
 ! R51   R(44,46)                1.0997         estimate D2E/DX2                !
 ! R52   R(44,47)                1.0994         estimate D2E/DX2                !
 ! R53   R(48,49)                1.1002         estimate D2E/DX2                !
 ! R54   R(48,50)                1.097          estimate D2E/DX2                !
 ! R55   R(48,51)                1.0996         estimate D2E/DX2                !
 ! R56   R(52,53)                1.5232         estimate D2E/DX2                !
 ! R57   R(52,57)                1.5235         estimate D2E/DX2                !
 ! R58   R(52,61)                1.5207         estimate D2E/DX2                !
 ! R59   R(53,54)                1.0999         estimate D2E/DX2                !
 ! R60   R(53,55)                1.0974         estimate D2E/DX2                !
 ! R61   R(53,56)                1.0999         estimate D2E/DX2                !
 ! R62   R(57,58)                1.0965         estimate D2E/DX2                !
 ! R63   R(57,59)                1.0999         estimate D2E/DX2                !
 ! R64   R(57,60)                1.1002         estimate D2E/DX2                !
 ! R65   R(61,62)                1.1003         estimate D2E/DX2                !
 ! R66   R(61,63)                1.0998         estimate D2E/DX2                !
 ! R67   R(61,64)                1.0994         estimate D2E/DX2                !
 ! R68   R(65,66)                1.0996         estimate D2E/DX2                !
 ! R69   R(65,67)                1.0996         estimate D2E/DX2                !
 ! R70   R(65,68)                1.54           estimate D2E/DX2                !
 ! R71   R(68,69)                1.4051         estimate D2E/DX2                !
 ! R72   R(68,70)                1.4051         estimate D2E/DX2                !
 ! R73   R(69,71)                1.3939         estimate D2E/DX2                !
 ! R74   R(69,74)                1.0856         estimate D2E/DX2                !
 ! R75   R(70,72)                1.3939         estimate D2E/DX2                !
 ! R76   R(70,75)                1.0856         estimate D2E/DX2                !
 ! R77   R(71,73)                1.3958         estimate D2E/DX2                !
 ! R78   R(71,76)                1.0863         estimate D2E/DX2                !
 ! R79   R(72,73)                1.3958         estimate D2E/DX2                !
 ! R80   R(72,77)                1.0863         estimate D2E/DX2                !
 ! R81   R(73,78)                1.086          estimate D2E/DX2                !
 ! A1    A(2,1,3)              109.7781         estimate D2E/DX2                !
 ! A2    A(2,1,29)             110.0046         estimate D2E/DX2                !
 ! A3    A(3,1,29)             109.7294         estimate D2E/DX2                !
 ! A4    A(1,2,4)              109.0801         estimate D2E/DX2                !
 ! A5    A(1,2,5)              109.1268         estimate D2E/DX2                !
 ! A6    A(1,2,6)              111.2814         estimate D2E/DX2                !
 ! A7    A(4,2,5)              107.3757         estimate D2E/DX2                !
 ! A8    A(4,2,6)              109.7339         estimate D2E/DX2                !
 ! A9    A(5,2,6)              110.1526         estimate D2E/DX2                !
 ! A10   A(1,3,7)              109.0473         estimate D2E/DX2                !
 ! A11   A(1,3,8)              109.148          estimate D2E/DX2                !
 ! A12   A(1,3,9)              111.6754         estimate D2E/DX2                !
 ! A13   A(7,3,8)              107.407          estimate D2E/DX2                !
 ! A14   A(7,3,9)              109.4124         estimate D2E/DX2                !
 ! A15   A(8,3,9)              110.0484         estimate D2E/DX2                !
 ! A16   A(2,6,10)             107.3986         estimate D2E/DX2                !
 ! A17   A(2,6,11)             107.9455         estimate D2E/DX2                !
 ! A18   A(2,6,21)             111.0444         estimate D2E/DX2                !
 ! A19   A(10,6,11)            107.7622         estimate D2E/DX2                !
 ! A20   A(10,6,21)            110.4297         estimate D2E/DX2                !
 ! A21   A(11,6,21)            112.0764         estimate D2E/DX2                !
 ! A22   A(3,9,11)             107.5382         estimate D2E/DX2                !
 ! A23   A(3,9,12)             106.661          estimate D2E/DX2                !
 ! A24   A(3,9,25)             110.6805         estimate D2E/DX2                !
 ! A25   A(11,9,12)            108.9287         estimate D2E/DX2                !
 ! A26   A(11,9,25)            111.8914         estimate D2E/DX2                !
 ! A27   A(12,9,25)            110.9409         estimate D2E/DX2                !
 ! A28   A(6,10,13)            111.212          estimate D2E/DX2                !
 ! A29   A(6,10,14)            110.9869         estimate D2E/DX2                !
 ! A30   A(6,10,15)            110.9544         estimate D2E/DX2                !
 ! A31   A(13,10,14)           107.7599         estimate D2E/DX2                !
 ! A32   A(13,10,15)           107.6147         estimate D2E/DX2                !
 ! A33   A(14,10,15)           108.1642         estimate D2E/DX2                !
 ! A34   A(6,11,9)             109.0102         estimate D2E/DX2                !
 ! A35   A(6,11,16)            108.0132         estimate D2E/DX2                !
 ! A36   A(6,11,19)            112.9794         estimate D2E/DX2                !
 ! A37   A(9,11,16)            107.0317         estimate D2E/DX2                !
 ! A38   A(9,11,19)            111.682          estimate D2E/DX2                !
 ! A39   A(16,11,19)           107.8815         estimate D2E/DX2                !
 ! A40   A(9,12,15)            110.3324         estimate D2E/DX2                !
 ! A41   A(9,12,17)            110.4628         estimate D2E/DX2                !
 ! A42   A(9,12,18)            112.8164         estimate D2E/DX2                !
 ! A43   A(15,12,17)           108.0337         estimate D2E/DX2                !
 ! A44   A(15,12,18)           108.0028         estimate D2E/DX2                !
 ! A45   A(17,12,18)           107.0126         estimate D2E/DX2                !
 ! A46   A(10,15,12)           110.3904         estimate D2E/DX2                !
 ! A47   A(10,15,29)           109.4715         estimate D2E/DX2                !
 ! A48   A(10,15,32)           106.5056         estimate D2E/DX2                !
 ! A49   A(12,15,29)           109.5481         estimate D2E/DX2                !
 ! A50   A(12,15,32)           113.2592         estimate D2E/DX2                !
 ! A51   A(29,15,32)           107.5499         estimate D2E/DX2                !
 ! A52   A(11,19,20)           116.9113         estimate D2E/DX2                !
 ! A53   A(11,19,65)           121.5443         estimate D2E/DX2                !
 ! A54   A(20,19,65)           121.5443         estimate D2E/DX2                !
 ! A55   A(6,21,22)            110.9882         estimate D2E/DX2                !
 ! A56   A(6,21,23)            110.6086         estimate D2E/DX2                !
 ! A57   A(6,21,24)            110.9805         estimate D2E/DX2                !
 ! A58   A(22,21,23)           108.1948         estimate D2E/DX2                !
 ! A59   A(22,21,24)           108.1144         estimate D2E/DX2                !
 ! A60   A(23,21,24)           107.835          estimate D2E/DX2                !
 ! A61   A(9,25,26)            111.5617         estimate D2E/DX2                !
 ! A62   A(9,25,27)            110.6005         estimate D2E/DX2                !
 ! A63   A(9,25,28)            110.6492         estimate D2E/DX2                !
 ! A64   A(26,25,27)           107.8258         estimate D2E/DX2                !
 ! A65   A(26,25,28)           108.0186         estimate D2E/DX2                !
 ! A66   A(27,25,28)           108.0535         estimate D2E/DX2                !
 ! A67   A(1,29,15)            111.7331         estimate D2E/DX2                !
 ! A68   A(1,29,30)            110.7772         estimate D2E/DX2                !
 ! A69   A(1,29,31)            110.4563         estimate D2E/DX2                !
 ! A70   A(15,29,30)           107.1123         estimate D2E/DX2                !
 ! A71   A(15,29,31)           107.745          estimate D2E/DX2                !
 ! A72   A(30,29,31)           108.8855         estimate D2E/DX2                !
 ! A73   A(15,32,33)           106.8034         estimate D2E/DX2                !
 ! A74   A(15,32,34)           110.6426         estimate D2E/DX2                !
 ! A75   A(15,32,37)            95.977          estimate D2E/DX2                !
 ! A76   A(33,32,34)           113.4695         estimate D2E/DX2                !
 ! A77   A(33,32,37)           125.9854         estimate D2E/DX2                !
 ! A78   A(34,32,37)           102.3427         estimate D2E/DX2                !
 ! A79   A(32,34,35)           118.8473         estimate D2E/DX2                !
 ! A80   A(34,35,36)           121.6584         estimate D2E/DX2                !
 ! A81   A(34,35,38)           110.9718         estimate D2E/DX2                !
 ! A82   A(36,35,38)           127.2643         estimate D2E/DX2                !
 ! A83   A(32,37,52)           120.9358         estimate D2E/DX2                !
 ! A84   A(35,38,39)           122.1214         estimate D2E/DX2                !
 ! A85   A(38,39,40)           102.8337         estimate D2E/DX2                !
 ! A86   A(38,39,44)           109.4407         estimate D2E/DX2                !
 ! A87   A(38,39,48)           109.6883         estimate D2E/DX2                !
 ! A88   A(40,39,44)           110.8674         estimate D2E/DX2                !
 ! A89   A(40,39,48)           110.9615         estimate D2E/DX2                !
 ! A90   A(44,39,48)           112.5988         estimate D2E/DX2                !
 ! A91   A(39,40,41)           110.6153         estimate D2E/DX2                !
 ! A92   A(39,40,42)           110.5008         estimate D2E/DX2                !
 ! A93   A(39,40,43)           109.969          estimate D2E/DX2                !
 ! A94   A(41,40,42)           108.5491         estimate D2E/DX2                !
 ! A95   A(41,40,43)           108.5945         estimate D2E/DX2                !
 ! A96   A(42,40,43)           108.5546         estimate D2E/DX2                !
 ! A97   A(39,44,45)           111.3848         estimate D2E/DX2                !
 ! A98   A(39,44,46)           110.0593         estimate D2E/DX2                !
 ! A99   A(39,44,47)           109.3886         estimate D2E/DX2                !
 ! A100  A(45,44,46)           108.9043         estimate D2E/DX2                !
 ! A101  A(45,44,47)           108.553          estimate D2E/DX2                !
 ! A102  A(46,44,47)           108.4896         estimate D2E/DX2                !
 ! A103  A(39,48,49)           110.3487         estimate D2E/DX2                !
 ! A104  A(39,48,50)           111.1004         estimate D2E/DX2                !
 ! A105  A(39,48,51)           109.3905         estimate D2E/DX2                !
 ! A106  A(49,48,50)           109.0312         estimate D2E/DX2                !
 ! A107  A(49,48,51)           108.1833         estimate D2E/DX2                !
 ! A108  A(50,48,51)           108.722          estimate D2E/DX2                !
 ! A109  A(37,52,53)           109.7197         estimate D2E/DX2                !
 ! A110  A(37,52,57)           111.087          estimate D2E/DX2                !
 ! A111  A(37,52,61)           102.8663         estimate D2E/DX2                !
 ! A112  A(53,52,57)           111.6237         estimate D2E/DX2                !
 ! A113  A(53,52,61)           110.7817         estimate D2E/DX2                !
 ! A114  A(57,52,61)           110.437          estimate D2E/DX2                !
 ! A115  A(52,53,54)           110.3824         estimate D2E/DX2                !
 ! A116  A(52,53,55)           110.9697         estimate D2E/DX2                !
 ! A117  A(52,53,56)           109.8183         estimate D2E/DX2                !
 ! A118  A(54,53,55)           108.3748         estimate D2E/DX2                !
 ! A119  A(54,53,56)           108.4302         estimate D2E/DX2                !
 ! A120  A(55,53,56)           108.8034         estimate D2E/DX2                !
 ! A121  A(52,57,58)           110.7692         estimate D2E/DX2                !
 ! A122  A(52,57,59)           110.6454         estimate D2E/DX2                !
 ! A123  A(52,57,60)           109.4717         estimate D2E/DX2                !
 ! A124  A(58,57,59)           108.8749         estimate D2E/DX2                !
 ! A125  A(58,57,60)           109.0403         estimate D2E/DX2                !
 ! A126  A(59,57,60)           107.9782         estimate D2E/DX2                !
 ! A127  A(52,61,62)           110.3939         estimate D2E/DX2                !
 ! A128  A(52,61,63)           110.5104         estimate D2E/DX2                !
 ! A129  A(52,61,64)           110.2584         estimate D2E/DX2                !
 ! A130  A(62,61,63)           108.5038         estimate D2E/DX2                !
 ! A131  A(62,61,64)           108.476          estimate D2E/DX2                !
 ! A132  A(63,61,64)           108.6385         estimate D2E/DX2                !
 ! A133  A(19,65,66)           109.2962         estimate D2E/DX2                !
 ! A134  A(19,65,67)           109.2962         estimate D2E/DX2                !
 ! A135  A(19,65,68)           113.6597         estimate D2E/DX2                !
 ! A136  A(66,65,67)           105.8945         estimate D2E/DX2                !
 ! A137  A(66,65,68)           109.2014         estimate D2E/DX2                !
 ! A138  A(67,65,68)           109.2014         estimate D2E/DX2                !
 ! A139  A(65,68,69)           120.9441         estimate D2E/DX2                !
 ! A140  A(65,68,70)           120.9441         estimate D2E/DX2                !
 ! A141  A(69,68,70)           118.1119         estimate D2E/DX2                !
 ! A142  A(68,69,71)           120.9574         estimate D2E/DX2                !
 ! A143  A(68,69,74)           119.3831         estimate D2E/DX2                !
 ! A144  A(71,69,74)           119.6595         estimate D2E/DX2                !
 ! A145  A(68,70,72)           120.9574         estimate D2E/DX2                !
 ! A146  A(68,70,75)           119.3831         estimate D2E/DX2                !
 ! A147  A(72,70,75)           119.6595         estimate D2E/DX2                !
 ! A148  A(69,71,73)           120.2599         estimate D2E/DX2                !
 ! A149  A(69,71,76)           119.6574         estimate D2E/DX2                !
 ! A150  A(73,71,76)           120.0828         estimate D2E/DX2                !
 ! A151  A(70,72,73)           120.2599         estimate D2E/DX2                !
 ! A152  A(70,72,77)           119.6574         estimate D2E/DX2                !
 ! A153  A(73,72,77)           120.0828         estimate D2E/DX2                !
 ! A154  A(71,73,72)           119.4536         estimate D2E/DX2                !
 ! A155  A(71,73,78)           120.2732         estimate D2E/DX2                !
 ! A156  A(72,73,78)           120.2732         estimate D2E/DX2                !
 ! D1    D(3,1,2,4)           -177.0462         estimate D2E/DX2                !
 ! D2    D(3,1,2,5)            -60.0188         estimate D2E/DX2                !
 ! D3    D(3,1,2,6)             61.7452         estimate D2E/DX2                !
 ! D4    D(29,1,2,4)            62.1108         estimate D2E/DX2                !
 ! D5    D(29,1,2,5)           179.1382         estimate D2E/DX2                !
 ! D6    D(29,1,2,6)           -59.0978         estimate D2E/DX2                !
 ! D7    D(2,1,3,7)            177.059          estimate D2E/DX2                !
 ! D8    D(2,1,3,8)             60.0006         estimate D2E/DX2                !
 ! D9    D(2,1,3,9)            -61.904          estimate D2E/DX2                !
 ! D10   D(29,1,3,7)           -61.9319         estimate D2E/DX2                !
 ! D11   D(29,1,3,8)          -178.9904         estimate D2E/DX2                !
 ! D12   D(29,1,3,9)            59.105          estimate D2E/DX2                !
 ! D13   D(2,1,29,15)           60.7166         estimate D2E/DX2                !
 ! D14   D(2,1,29,30)          -58.6261         estimate D2E/DX2                !
 ! D15   D(2,1,29,31)         -179.3577         estimate D2E/DX2                !
 ! D16   D(3,1,29,15)          -60.1557         estimate D2E/DX2                !
 ! D17   D(3,1,29,30)         -179.4984         estimate D2E/DX2                !
 ! D18   D(3,1,29,31)           59.77           estimate D2E/DX2                !
 ! D19   D(1,2,6,10)            55.9613         estimate D2E/DX2                !
 ! D20   D(1,2,6,11)           -59.985          estimate D2E/DX2                !
 ! D21   D(1,2,6,21)           176.7917         estimate D2E/DX2                !
 ! D22   D(4,2,6,10)           -64.8643         estimate D2E/DX2                !
 ! D23   D(4,2,6,11)           179.1895         estimate D2E/DX2                !
 ! D24   D(4,2,6,21)            55.9661         estimate D2E/DX2                !
 ! D25   D(5,2,6,10)           177.1271         estimate D2E/DX2                !
 ! D26   D(5,2,6,11)            61.1809         estimate D2E/DX2                !
 ! D27   D(5,2,6,21)           -62.0425         estimate D2E/DX2                !
 ! D28   D(1,3,9,11)            59.9265         estimate D2E/DX2                !
 ! D29   D(1,3,9,12)           -56.7975         estimate D2E/DX2                !
 ! D30   D(1,3,9,25)          -177.5767         estimate D2E/DX2                !
 ! D31   D(7,3,9,11)          -179.249          estimate D2E/DX2                !
 ! D32   D(7,3,9,12)            64.0269         estimate D2E/DX2                !
 ! D33   D(7,3,9,25)           -56.7522         estimate D2E/DX2                !
 ! D34   D(8,3,9,11)           -61.4579         estimate D2E/DX2                !
 ! D35   D(8,3,9,12)          -178.1819         estimate D2E/DX2                !
 ! D36   D(8,3,9,25)            61.0389         estimate D2E/DX2                !
 ! D37   D(2,6,10,13)           64.0243         estimate D2E/DX2                !
 ! D38   D(2,6,10,14)         -176.0202         estimate D2E/DX2                !
 ! D39   D(2,6,10,15)          -55.7262         estimate D2E/DX2                !
 ! D40   D(11,6,10,13)        -179.9085         estimate D2E/DX2                !
 ! D41   D(11,6,10,14)         -59.953          estimate D2E/DX2                !
 ! D42   D(11,6,10,15)          60.341          estimate D2E/DX2                !
 ! D43   D(21,6,10,13)         -57.1931         estimate D2E/DX2                !
 ! D44   D(21,6,10,14)          62.7624         estimate D2E/DX2                !
 ! D45   D(21,6,10,15)        -176.9436         estimate D2E/DX2                !
 ! D46   D(2,6,11,9)            57.937          estimate D2E/DX2                !
 ! D47   D(2,6,11,16)          -58.0263         estimate D2E/DX2                !
 ! D48   D(2,6,11,19)         -177.2747         estimate D2E/DX2                !
 ! D49   D(10,6,11,9)          -57.7712         estimate D2E/DX2                !
 ! D50   D(10,6,11,16)        -173.7345         estimate D2E/DX2                !
 ! D51   D(10,6,11,19)          67.0171         estimate D2E/DX2                !
 ! D52   D(21,6,11,9)         -179.4697         estimate D2E/DX2                !
 ! D53   D(21,6,11,16)          64.5669         estimate D2E/DX2                !
 ! D54   D(21,6,11,19)         -54.6814         estimate D2E/DX2                !
 ! D55   D(2,6,21,22)          178.362          estimate D2E/DX2                !
 ! D56   D(2,6,21,23)          -61.5345         estimate D2E/DX2                !
 ! D57   D(2,6,21,24)           58.1125         estimate D2E/DX2                !
 ! D58   D(10,6,21,22)         -62.6121         estimate D2E/DX2                !
 ! D59   D(10,6,21,23)          57.4914         estimate D2E/DX2                !
 ! D60   D(10,6,21,24)         177.1385         estimate D2E/DX2                !
 ! D61   D(11,6,21,22)          57.5449         estimate D2E/DX2                !
 ! D62   D(11,6,21,23)         177.6484         estimate D2E/DX2                !
 ! D63   D(11,6,21,24)         -62.7045         estimate D2E/DX2                !
 ! D64   D(3,9,11,6)           -57.6088         estimate D2E/DX2                !
 ! D65   D(3,9,11,16)           58.9822         estimate D2E/DX2                !
 ! D66   D(3,9,11,19)          176.8464         estimate D2E/DX2                !
 ! D67   D(12,9,11,6)           57.6213         estimate D2E/DX2                !
 ! D68   D(12,9,11,16)         174.2123         estimate D2E/DX2                !
 ! D69   D(12,9,11,19)         -67.9235         estimate D2E/DX2                !
 ! D70   D(25,9,11,6)         -179.3542         estimate D2E/DX2                !
 ! D71   D(25,9,11,16)         -62.7632         estimate D2E/DX2                !
 ! D72   D(25,9,11,19)          55.1011         estimate D2E/DX2                !
 ! D73   D(3,9,12,15)           56.7674         estimate D2E/DX2                !
 ! D74   D(3,9,12,17)          -62.6161         estimate D2E/DX2                !
 ! D75   D(3,9,12,18)          177.6628         estimate D2E/DX2                !
 ! D76   D(11,9,12,15)         -59.0281         estimate D2E/DX2                !
 ! D77   D(11,9,12,17)        -178.4117         estimate D2E/DX2                !
 ! D78   D(11,9,12,18)          61.8672         estimate D2E/DX2                !
 ! D79   D(25,9,12,15)         177.3799         estimate D2E/DX2                !
 ! D80   D(25,9,12,17)          57.9964         estimate D2E/DX2                !
 ! D81   D(25,9,12,18)         -61.7247         estimate D2E/DX2                !
 ! D82   D(3,9,25,26)          178.3454         estimate D2E/DX2                !
 ! D83   D(3,9,25,27)          -61.6429         estimate D2E/DX2                !
 ! D84   D(3,9,25,28)           58.0571         estimate D2E/DX2                !
 ! D85   D(11,9,25,26)         -61.7335         estimate D2E/DX2                !
 ! D86   D(11,9,25,27)          58.2782         estimate D2E/DX2                !
 ! D87   D(11,9,25,28)         177.9782         estimate D2E/DX2                !
 ! D88   D(12,9,25,26)          60.1433         estimate D2E/DX2                !
 ! D89   D(12,9,25,27)        -179.845          estimate D2E/DX2                !
 ! D90   D(12,9,25,28)         -60.145          estimate D2E/DX2                !
 ! D91   D(6,10,15,12)         -62.5829         estimate D2E/DX2                !
 ! D92   D(6,10,15,29)          58.0837         estimate D2E/DX2                !
 ! D93   D(6,10,15,32)         174.0817         estimate D2E/DX2                !
 ! D94   D(13,10,15,12)        175.5407         estimate D2E/DX2                !
 ! D95   D(13,10,15,29)        -63.7928         estimate D2E/DX2                !
 ! D96   D(13,10,15,32)         52.2053         estimate D2E/DX2                !
 ! D97   D(14,10,15,12)         59.3737         estimate D2E/DX2                !
 ! D98   D(14,10,15,29)       -179.9598         estimate D2E/DX2                !
 ! D99   D(14,10,15,32)        -63.9617         estimate D2E/DX2                !
 ! D100  D(6,11,19,20)         -85.1054         estimate D2E/DX2                !
 ! D101  D(6,11,19,65)          94.8946         estimate D2E/DX2                !
 ! D102  D(9,11,19,20)          38.2169         estimate D2E/DX2                !
 ! D103  D(9,11,19,65)        -141.7831         estimate D2E/DX2                !
 ! D104  D(16,11,19,20)        155.5702         estimate D2E/DX2                !
 ! D105  D(16,11,19,65)        -24.4298         estimate D2E/DX2                !
 ! D106  D(9,12,15,10)          61.2943         estimate D2E/DX2                !
 ! D107  D(9,12,15,29)         -59.3264         estimate D2E/DX2                !
 ! D108  D(9,12,15,32)        -179.386          estimate D2E/DX2                !
 ! D109  D(17,12,15,10)       -177.8597         estimate D2E/DX2                !
 ! D110  D(17,12,15,29)         61.5196         estimate D2E/DX2                !
 ! D111  D(17,12,15,32)        -58.54           estimate D2E/DX2                !
 ! D112  D(18,12,15,10)        -62.434          estimate D2E/DX2                !
 ! D113  D(18,12,15,29)        176.9452         estimate D2E/DX2                !
 ! D114  D(18,12,15,32)         56.8856         estimate D2E/DX2                !
 ! D115  D(10,15,29,1)         -60.3426         estimate D2E/DX2                !
 ! D116  D(10,15,29,30)         61.1436         estimate D2E/DX2                !
 ! D117  D(10,15,29,31)        178.1513         estimate D2E/DX2                !
 ! D118  D(12,15,29,1)          60.8349         estimate D2E/DX2                !
 ! D119  D(12,15,29,30)       -177.6789         estimate D2E/DX2                !
 ! D120  D(12,15,29,31)        -60.6712         estimate D2E/DX2                !
 ! D121  D(32,15,29,1)        -175.675          estimate D2E/DX2                !
 ! D122  D(32,15,29,30)        -54.1889         estimate D2E/DX2                !
 ! D123  D(32,15,29,31)         62.8189         estimate D2E/DX2                !
 ! D124  D(10,15,32,33)        178.7424         estimate D2E/DX2                !
 ! D125  D(10,15,32,34)         54.802          estimate D2E/DX2                !
 ! D126  D(10,15,32,37)        -50.8096         estimate D2E/DX2                !
 ! D127  D(12,15,32,33)         57.2154         estimate D2E/DX2                !
 ! D128  D(12,15,32,34)        -66.7251         estimate D2E/DX2                !
 ! D129  D(12,15,32,37)       -172.3366         estimate D2E/DX2                !
 ! D130  D(29,15,32,33)        -63.9769         estimate D2E/DX2                !
 ! D131  D(29,15,32,34)        172.0827         estimate D2E/DX2                !
 ! D132  D(29,15,32,37)         66.4711         estimate D2E/DX2                !
 ! D133  D(11,19,65,66)        -43.525          estimate D2E/DX2                !
 ! D134  D(11,19,65,67)         71.944          estimate D2E/DX2                !
 ! D135  D(11,19,65,68)       -165.7905         estimate D2E/DX2                !
 ! D136  D(20,19,65,66)        136.475          estimate D2E/DX2                !
 ! D137  D(20,19,65,67)       -108.056          estimate D2E/DX2                !
 ! D138  D(20,19,65,68)         14.2095         estimate D2E/DX2                !
 ! D139  D(15,32,34,35)         22.074          estimate D2E/DX2                !
 ! D140  D(33,32,34,35)        -97.9491         estimate D2E/DX2                !
 ! D141  D(37,32,34,35)        123.397          estimate D2E/DX2                !
 ! D142  D(15,32,37,52)       -140.3726         estimate D2E/DX2                !
 ! D143  D(33,32,37,52)        -24.5716         estimate D2E/DX2                !
 ! D144  D(34,32,37,52)        106.9364         estimate D2E/DX2                !
 ! D145  D(32,34,35,36)        -34.1818         estimate D2E/DX2                !
 ! D146  D(32,34,35,38)        149.2972         estimate D2E/DX2                !
 ! D147  D(34,35,38,39)       -173.951          estimate D2E/DX2                !
 ! D148  D(36,35,38,39)          9.7702         estimate D2E/DX2                !
 ! D149  D(32,37,52,53)        -55.3809         estimate D2E/DX2                !
 ! D150  D(32,37,52,57)         68.5215         estimate D2E/DX2                !
 ! D151  D(32,37,52,61)       -173.3173         estimate D2E/DX2                !
 ! D152  D(35,38,39,40)        175.8323         estimate D2E/DX2                !
 ! D153  D(35,38,39,44)         57.9388         estimate D2E/DX2                !
 ! D154  D(35,38,39,48)        -66.0552         estimate D2E/DX2                !
 ! D155  D(38,39,40,41)        -61.1141         estimate D2E/DX2                !
 ! D156  D(38,39,40,42)         59.1188         estimate D2E/DX2                !
 ! D157  D(38,39,40,43)        178.9413         estimate D2E/DX2                !
 ! D158  D(44,39,40,41)         55.7687         estimate D2E/DX2                !
 ! D159  D(44,39,40,42)        176.0016         estimate D2E/DX2                !
 ! D160  D(44,39,40,43)        -64.176          estimate D2E/DX2                !
 ! D161  D(48,39,40,41)       -178.3269         estimate D2E/DX2                !
 ! D162  D(48,39,40,42)        -58.094          estimate D2E/DX2                !
 ! D163  D(48,39,40,43)         61.7285         estimate D2E/DX2                !
 ! D164  D(38,39,44,45)        -67.8524         estimate D2E/DX2                !
 ! D165  D(38,39,44,46)         53.0381         estimate D2E/DX2                !
 ! D166  D(38,39,44,47)        172.1434         estimate D2E/DX2                !
 ! D167  D(40,39,44,45)        179.4022         estimate D2E/DX2                !
 ! D168  D(40,39,44,46)        -59.7073         estimate D2E/DX2                !
 ! D169  D(40,39,44,47)         59.398          estimate D2E/DX2                !
 ! D170  D(48,39,44,45)         54.4169         estimate D2E/DX2                !
 ! D171  D(48,39,44,46)        175.3074         estimate D2E/DX2                !
 ! D172  D(48,39,44,47)        -65.5874         estimate D2E/DX2                !
 ! D173  D(38,39,48,49)        -55.5179         estimate D2E/DX2                !
 ! D174  D(38,39,48,50)         65.5393         estimate D2E/DX2                !
 ! D175  D(38,39,48,51)       -174.4244         estimate D2E/DX2                !
 ! D176  D(40,39,48,49)         57.4186         estimate D2E/DX2                !
 ! D177  D(40,39,48,50)        178.4759         estimate D2E/DX2                !
 ! D178  D(40,39,48,51)        -61.4878         estimate D2E/DX2                !
 ! D179  D(44,39,48,49)       -177.6474         estimate D2E/DX2                !
 ! D180  D(44,39,48,50)        -56.5902         estimate D2E/DX2                !
 ! D181  D(44,39,48,51)         63.4461         estimate D2E/DX2                !
 ! D182  D(37,52,53,54)        -55.5265         estimate D2E/DX2                !
 ! D183  D(37,52,53,55)         64.6416         estimate D2E/DX2                !
 ! D184  D(37,52,53,56)       -175.0249         estimate D2E/DX2                !
 ! D185  D(57,52,53,54)       -179.1148         estimate D2E/DX2                !
 ! D186  D(57,52,53,55)        -58.9467         estimate D2E/DX2                !
 ! D187  D(57,52,53,56)         61.3868         estimate D2E/DX2                !
 ! D188  D(61,52,53,54)         57.3681         estimate D2E/DX2                !
 ! D189  D(61,52,53,55)        177.5362         estimate D2E/DX2                !
 ! D190  D(61,52,53,56)        -62.1303         estimate D2E/DX2                !
 ! D191  D(37,52,57,58)        -63.3811         estimate D2E/DX2                !
 ! D192  D(37,52,57,59)         57.4576         estimate D2E/DX2                !
 ! D193  D(37,52,57,60)        176.3432         estimate D2E/DX2                !
 ! D194  D(53,52,57,58)         59.43           estimate D2E/DX2                !
 ! D195  D(53,52,57,59)       -179.7313         estimate D2E/DX2                !
 ! D196  D(53,52,57,60)        -60.8457         estimate D2E/DX2                !
 ! D197  D(61,52,57,58)       -176.858          estimate D2E/DX2                !
 ! D198  D(61,52,57,59)        -56.0192         estimate D2E/DX2                !
 ! D199  D(61,52,57,60)         62.8663         estimate D2E/DX2                !
 ! D200  D(37,52,61,62)        -59.9688         estimate D2E/DX2                !
 ! D201  D(37,52,61,63)         60.07           estimate D2E/DX2                !
 ! D202  D(37,52,61,64)       -179.8109         estimate D2E/DX2                !
 ! D203  D(53,52,61,62)       -177.1545         estimate D2E/DX2                !
 ! D204  D(53,52,61,63)        -57.1157         estimate D2E/DX2                !
 ! D205  D(53,52,61,64)         63.0034         estimate D2E/DX2                !
 ! D206  D(57,52,61,62)         58.6483         estimate D2E/DX2                !
 ! D207  D(57,52,61,63)        178.6871         estimate D2E/DX2                !
 ! D208  D(57,52,61,64)        -61.1938         estimate D2E/DX2                !
 ! D209  D(19,65,68,69)        -90.0            estimate D2E/DX2                !
 ! D210  D(19,65,68,70)         90.0            estimate D2E/DX2                !
 ! D211  D(66,65,68,69)        147.6821         estimate D2E/DX2                !
 ! D212  D(66,65,68,70)        -32.3179         estimate D2E/DX2                !
 ! D213  D(67,65,68,69)         32.3179         estimate D2E/DX2                !
 ! D214  D(67,65,68,70)       -147.6821         estimate D2E/DX2                !
 ! D215  D(65,68,69,71)        180.0            estimate D2E/DX2                !
 ! D216  D(65,68,69,74)          0.0            estimate D2E/DX2                !
 ! D217  D(70,68,69,71)          0.0            estimate D2E/DX2                !
 ! D218  D(70,68,69,74)        180.0            estimate D2E/DX2                !
 ! D219  D(65,68,70,72)        180.0            estimate D2E/DX2                !
 ! D220  D(65,68,70,75)          0.0            estimate D2E/DX2                !
 ! D221  D(69,68,70,72)          0.0            estimate D2E/DX2                !
 ! D222  D(69,68,70,75)        180.0            estimate D2E/DX2                !
 ! D223  D(68,69,71,73)          0.0            estimate D2E/DX2                !
 ! D224  D(68,69,71,76)        180.0            estimate D2E/DX2                !
 ! D225  D(74,69,71,73)        180.0            estimate D2E/DX2                !
 ! D226  D(74,69,71,76)          0.0            estimate D2E/DX2                !
 ! D227  D(68,70,72,73)          0.0            estimate D2E/DX2                !
 ! D228  D(68,70,72,77)        180.0            estimate D2E/DX2                !
 ! D229  D(75,70,72,73)        180.0            estimate D2E/DX2                !
 ! D230  D(75,70,72,77)          0.0            estimate D2E/DX2                !
 ! D231  D(69,71,73,72)          0.0            estimate D2E/DX2                !
 ! D232  D(69,71,73,78)        180.0            estimate D2E/DX2                !
 ! D233  D(76,71,73,72)        180.0            estimate D2E/DX2                !
 ! D234  D(76,71,73,78)          0.0            estimate D2E/DX2                !
 ! D235  D(70,72,73,71)          0.0            estimate D2E/DX2                !
 ! D236  D(70,72,73,78)        180.0            estimate D2E/DX2                !
 ! D237  D(77,72,73,71)        180.0            estimate D2E/DX2                !
 ! D238  D(77,72,73,78)          0.0            estimate D2E/DX2                !
 --------------------------------------------------------------------------------
 Trust Radius=3.00D-01 FncErr=1.00D-07 GrdErr=1.00D-06 EigMax=2.50D+02 EigMin=1.00D-04
 Number of steps in this run=    468 maximum allowed number of steps=    468.
 GradGradGradGradGradGradGradGradGradGradGradGradGradGradGradGradGradGrad

 Leave Link  103 at Tue Mar 16 12:33:53 2021, MaxMem=  6174015488 cpu:               0.4 elap:               0.0
 (Enter /opt/g16avx/l202.exe)
 Stoichiometry    C27H43N3O5
 Framework group  C1[X(C27H43N3O5)]
 Deg. of freedom   228
 Full point group                 C1      NOp   1
 Largest Abelian subgroup         C1      NOp   1
 Largest concise Abelian subgroup C1      NOp   1
                         Standard orientation:                         
 ---------------------------------------------------------------------
 Center     Atomic      Atomic             Coordinates (Angstroms)
 Number     Number       Type             X           Y           Z
 ---------------------------------------------------------------------
      1          7           0       -2.544162   -2.685897   -0.575906
      2          6           0       -1.870415   -3.006806    0.673462
      3          6           0       -1.643456   -2.918532   -1.694956
      4          1           0       -2.578975   -2.877581    1.508707
      5          1           0       -1.568270   -4.067190    0.659010
      6          6           0       -0.642458   -2.109433    0.891310
      7          1           0       -2.182061   -2.722688   -2.637227
      8          1           0       -1.341653   -3.978740   -1.701840
      9          6           0       -0.398027   -2.015508   -1.620009
     10          6           0       -1.120666   -0.655477    0.828198
     11          6           0        0.333743   -2.338723   -0.293613
     12          6           0       -0.906810   -0.566854   -1.568284
     13          1           0       -1.818728   -0.429854    1.648769
     14          1           0       -0.273630    0.041547    0.907131
     15          7           0       -1.817472   -0.386992   -0.433541
     16          1           0        0.591976   -3.409939   -0.320099
     17          1           0       -1.456152   -0.319214   -2.488255
     18          1           0       -0.092948    0.168289   -1.471293
     19          7           0        1.557456   -1.592219   -0.165922
     20          1           0        1.548211   -0.637857   -0.499472
     21          6           0        0.010156   -2.394739    2.231388
     22          1           0        0.905931   -1.772369    2.373849
     23          1           0       -0.689224   -2.184587    3.055701
     24          1           0        0.311769   -3.450980    2.306062
     25          6           0        0.496181   -2.233881   -2.827738
     26          1           0        1.376057   -1.574601   -2.803638
     27          1           0        0.855374   -3.274407   -2.860847
     28          1           0       -0.054398   -2.033133   -3.759893
     29          6           0       -2.964955   -1.309744   -0.568946
     30          1           0       -3.639902   -1.112665    0.275891
     31          1           0       -3.485097   -1.062367   -1.505043
     32          6           0       -2.366349    1.005089   -0.329403
     33          8           0       -2.924574    1.243054   -1.384477
     34          8           0       -1.321219    1.939447   -0.011159
     35          6           0       -0.047311    1.607944   -0.289257
     36          8           0        0.342334    0.470502   -0.208312
     37          8           0       -2.971332    0.828803    0.868238
     38          8           0        0.666867    2.676301   -0.568216
     39          6           0        2.051001    2.587098   -1.031918
     40          6           0        2.405631    4.037083   -1.316906
     41          1           0        1.749625    4.450008   -2.096855
     42          1           0        2.295085    4.646407   -0.408097
     43          1           0        3.446936    4.108126   -1.661056
     44          6           0        2.106033    1.755356   -2.304944
     45          1           0        1.861534    0.704123   -2.106933
     46          1           0        1.397199    2.152538   -3.045929
     47          1           0        3.118821    1.804916   -2.729796
     48          6           0        2.926880    2.020088    0.075172
     49          1           0        2.827229    2.624324    0.989194
     50          1           0        2.654724    0.981700    0.301358
     51          1           0        3.979531    2.048081   -0.241623
     52          6           0       -4.278120    1.406741    1.137865
     53          6           0       -4.237096    2.908849    0.888710
     54          1           0       -3.440174    3.374747    1.486778
     55          1           0       -4.047128    3.126291   -0.170038
     56          1           0       -5.197496    3.360982    1.176708
     57          6           0       -5.359481    0.728955    0.305797
     58          1           0       -5.186523    0.892948   -0.764518
     59          1           0       -5.378140   -0.353198    0.501500
     60          1           0       -6.343039    1.140191    0.577571
     61          6           0       -4.481164    1.110253    2.615508
     62          1           0       -4.459109    0.024940    2.795385
     63          1           0       -3.687789    1.579640    3.215274
     64          1           0       -5.452808    1.499499    2.951874
     65          6           0        2.764947   -2.189651    0.422244
     66          1           0        2.487751   -2.758882    1.321276
     67          1           0        3.186726   -2.922899   -0.280301
     68          6           0        3.848449   -1.158771    0.789544
     69          6           0        4.836718   -0.787739   -0.137813
     70          6           0        3.876854   -0.562504    2.061546
     71          6           0        5.817524    0.145279    0.194334
     72          6           0        4.857402    0.370575    2.394284
     73          6           0        5.832530    0.728951    1.462134
     74          1           0        4.834243   -1.235624   -1.126679
     75          1           0        3.123118   -0.834103    2.794063
     76          1           0        6.571527    0.416713   -0.539021
     77          1           0        4.859438    0.818461    3.383931
     78          1           0        6.596611    1.455922    1.721151
 ---------------------------------------------------------------------
 Rotational constants (GHZ):           0.1914578           0.0961440           0.0819455
 Leave Link  202 at Tue Mar 16 12:33:53 2021, MaxMem=  6174015488 cpu:               0.2 elap:               0.0
 (Enter /opt/g16avx/l301.exe)
 Standard basis: def2SVP (5D, 7F)
 Ernie: Thresh=  0.10000D-02 Tol=  0.10000D-05 Strict=F.
 There are   740 symmetry adapted cartesian basis functions of A   symmetry.
 There are   705 symmetry adapted basis functions of A   symmetry.
   705 basis functions,  1176 primitive gaussians,   740 cartesian basis functions
   133 alpha electrons      133 beta electrons
       nuclear repulsion energy      4584.4246236087 Hartrees.
 IExCor= 1009 DFT=T Ex+Corr=PBE1PBE ExCW=0 ScaHFX=  0.250000
 ScaDFX=  0.750000  0.750000  1.000000  1.000000 ScalE2=  1.000000  1.000000
 IRadAn=      5 IRanWt=     -1 IRanGd=            0 ICorTp=0 IEmpDi=141
 NAtoms=   78 NActive=   78 NUniq=   78 SFac= 1.00D+00 NAtFMM=   60 NAOKFM=T Big=T
 Integral buffers will be    131072 words long.
 Raffenetti 2 integral format.
 Two-electron integral symmetry is turned on.
 R6Disp:  Grimme-D3(BJ) Dispersion energy=       -0.1090795472 Hartrees.
 Nuclear repulsion after empirical dispersion term =     4584.3155440615 Hartrees.
 ------------------------------------------------------------------------------
 Polarizable Continuum Model (PCM)
 =================================
 Model                : PCM.
 Atomic radii         : SMD-Coulomb.
 Polarization charges : Total charges.
 Charge compensation  : None.
 Solution method      : On-the-fly selection.
 Cavity type          : VdW (van der Waals Surface) (Alpha=1.000).
 Cavity algorithm     : GePol (No added spheres)
                        Default sphere list used, NSphG=   78.
                        Lebedev-Laikov grids with approx.  5.0 points / Ang**2.
                        Smoothing algorithm: York/Karplus (Gamma=1.0000).
                        Polarization charges: spherical gaussians, with
                                              point-specific exponents (IZeta= 3).
                        Self-potential: point-specific (ISelfS= 7).
                        Self-field    : sphere-specific E.n sum rule (ISelfD= 2).
 1st derivatives      : Analytical E(r).r(x)/FMM algorithm (CHGder, D1EAlg=3).
                        Cavity 1st derivative terms included.
 Solvent              : Water, Eps=  78.355300 Eps(inf)=   1.777849
 ------------------------------------------------------------------------------
 GePol: Number of generator spheres                  =      78
 GePol: Total number of spheres                      =      78
 GePol: Number of exposed spheres                    =      78 (100.00%)
 GePol: Number of points                             =    4584
 GePol: Average weight of points                     =       0.11
 GePol: Minimum weight of points                     =   0.40D-11
 GePol: Maximum weight of points                     =    0.21991
 GePol: Number of points with low weight             =     384
 GePol: Fraction of low-weight points (<1% of avg)   =       8.38%
 GePol: Cavity surface area                          =    487.100 Ang**2
 GePol: Cavity volume                                =    489.143 Ang**3
 ------------------------------------------------------------------------------
 Atomic radii for non-electrostatic terms: SMD-CDS.
 ------------------------------------------------------------------------------
 PCM non-electrostatic energy =         0.0118613582 Hartrees.
 Nuclear repulsion after PCM non-electrostatic terms =     4584.3274054197 Hartrees.
 Leave Link  301 at Tue Mar 16 12:33:53 2021, MaxMem=  6174015488 cpu:               3.3 elap:               0.2
 (Enter /opt/g16avx/l302.exe)
 NPDir=0 NMtPBC=     1 NCelOv=     1 NCel=       1 NClECP=     1 NCelD=      1
         NCelK=      1 NCelE2=     1 NClLst=     1 CellRange=     0.0.
 One-electron integrals computed using PRISM.
 One-electron integral symmetry used in STVInt
   1 Symmetry operations used in ECPInt.
 ECPInt:  NShTT=   57630 NPrTT=  202514 LenC2=   50374 LenP2D=  118792.
 LDataN:  DoStor=T MaxTD1= 4 Len=   56
 NBasis=   705 RedAO= T EigKep=  2.79D-04  NBF=   705
 NBsUse=   705 1.00D-06 EigRej= -1.00D+00 NBFU=   705
 Precomputing XC quadrature grid using
 IXCGrd= 4 IRadAn=           5 IRanWt=          -1 IRanGd=           0 AccXCQ= 0.00D+00.
 Generated NRdTot=       0 NPtTot=           0 NUsed=           0 NTot=          32
 NSgBfM=   732   732   732   732   732 MxSgAt=    78 MxSgA2=    78.
 Leave Link  302 at Tue Mar 16 12:33:56 2021, MaxMem=  6174015488 cpu:              42.9 elap:               2.2
 (Enter /opt/g16avx/l303.exe)
 DipDrv:  MaxL=1.
 Leave Link  303 at Tue Mar 16 12:33:56 2021, MaxMem=  6174015488 cpu:               3.8 elap:               0.2
 (Enter /opt/g16avx/l401.exe)
 ExpMin= 1.22D-01 ExpMax= 2.27D+03 ExpMxC= 3.41D+02 IAcc=3 IRadAn=         5 AccDes= 0.00D+00
 Harris functional with IExCor= 1009 and IRadAn=       5 diagonalized for initial guess.
 HarFok:  IExCor= 1009 AccDes= 0.00D+00 IRadAn=         5 IDoV= 1 UseB2=F ITyADJ=14
 ICtDFT=  3500011 ScaDFX=  1.000000  1.000000  1.000000  1.000000
 FoFCou: FMM=F IPFlag=           0 FMFlag=      100000 FMFlg1=        2001
         NFxFlg=           0 DoJE=T BraDBF=F KetDBF=T FulRan=T
         wScrn=  0.000000 ICntrl=       500 IOpCl=  0 I1Cent=   200000004 NGrid=           0
         NMat0=    1 NMatS0=      1 NMatT0=    0 NMatD0=    1 NMtDS0=    0 NMtDT0=    0
 Petite list used in FoFCou.
 Harris En= -1592.51239529666    
 JPrj=0 DoOrth=F DoCkMO=F.
 Leave Link  401 at Tue Mar 16 12:34:04 2021, MaxMem=  6174015488 cpu:             156.7 elap:               7.9
 (Enter /opt/g16avx/l502.exe)
 Integral symmetry usage will be decided dynamically.
 Closed shell SCF:
 Using DIIS extrapolation, IDIIS=  1040.
 NGot=  6174015488 LenX=  6172897414 LenY=  6172349074
 Requested convergence on RMS density matrix=1.00D-08 within 128 cycles.
 Requested convergence on MAX density matrix=1.00D-06.
 Requested convergence on             energy=1.00D-06.
 No special actions if energy rises.
 Fock matrices will be formed incrementally for  20 cycles.

 Cycle   1  Pass 1  IDiag  1:
 FoFJK:  IHMeth= 1 ICntrl=       0 DoSepK=F KAlg= 0 I1Cent=           0 FoldK=F
 IRaf= 990000000 NMat=       1 IRICut=       1 DoRegI=T DoRafI=F ISym2E= 0 IDoP0=0 IntGTp=1.
 FoFCou: FMM=T IPFlag=           0 FMFlag=      100000 FMFlg1=        2001
         NFxFlg=           0 DoJE=F BraDBF=F KetDBF=F FulRan=T
         wScrn=  0.000000 ICntrl=         0 IOpCl=  0 I1Cent=           0 NGrid=           0
         NMat0=    1 NMatS0=      1 NMatT0=    0 NMatD0=    1 NMtDS0=    0 NMtDT0=    0
 Symmetry not used in FoFCou.
 FMM levels:  10  Number of levels for PrismC:   9
 Inv3:  Mode=1 IEnd=    63039168.
 Iteration    1 A*A^-1 deviation from unit magnitude is 3.77D-15 for   2890.
 Iteration    1 A*A^-1 deviation from orthogonality  is 2.44D-15 for   3049      7.
 Iteration    1 A^-1*A deviation from unit magnitude is 3.77D-15 for   2890.
 Iteration    1 A^-1*A deviation from orthogonality  is 2.55D-15 for   4147    631.
 E= -1591.26261565081    
 DIIS: error= 1.48D-02 at cycle   1 NSaved=   1.
 NSaved= 1 IEnMin= 1 EnMin= -1591.26261565081     IErMin= 1 ErrMin= 1.48D-02
 ErrMax= 1.48D-02  0.00D+00 EMaxC= 1.00D-01 BMatC= 8.69D-01 BMatP= 8.69D-01
 IDIUse=3 WtCom= 8.52D-01 WtEn= 1.48D-01
 Coeff-Com:  0.100D+01
 Coeff-En:   0.100D+01
 Coeff:      0.100D+01
 Gap=     0.162 Goal=   None    Shift=    0.000
 GapD=    0.162 DampG=1.000 DampE=0.500 DampFc=0.5000 IDamp=-1.
 Damping current iteration by 5.00D-01
 RMSDP=3.34D-03 MaxDP=1.97D-01              OVMax= 2.01D-01

 Cycle   2  Pass 1  IDiag  1:
 RMSU=  1.65D-03    CP:  9.79D-01
 E= -1591.63070103051     Delta-E=       -0.368085379695 Rises=F Damp=T
 DIIS: error= 4.13D-03 at cycle   2 NSaved=   2.
 NSaved= 2 IEnMin= 2 EnMin= -1591.63070103051     IErMin= 2 ErrMin= 4.13D-03
 ErrMax= 4.13D-03  0.00D+00 EMaxC= 1.00D-01 BMatC= 5.72D-02 BMatP= 8.69D-01
 IDIUse=3 WtCom= 9.59D-01 WtEn= 4.13D-02
 Coeff-Com:  0.836D-01 0.916D+00
 Coeff-En:   0.121D+00 0.879D+00
 Coeff:      0.851D-01 0.915D+00
 Gap=     0.202 Goal=   None    Shift=    0.000
 RMSDP=9.98D-04 MaxDP=6.72D-02 DE=-3.68D-01 OVMax= 1.55D-01

 Cycle   3  Pass 1  IDiag  1:
 RMSU=  9.89D-04    CP:  9.70D-01  9.54D-01
 E= -1592.06870924838     Delta-E=       -0.438008217872 Rises=F Damp=F
 DIIS: error= 6.19D-03 at cycle   3 NSaved=   3.
 NSaved= 3 IEnMin= 3 EnMin= -1592.06870924838     IErMin= 2 ErrMin= 4.13D-03
 ErrMax= 6.19D-03  0.00D+00 EMaxC= 1.00D-01 BMatC= 5.19D-02 BMatP= 5.72D-02
 IDIUse=3 WtCom= 9.38D-01 WtEn= 6.19D-02
 Coeff-Com: -0.188D-03 0.485D+00 0.515D+00
 Coeff-En:   0.000D+00 0.000D+00 0.100D+01
 Coeff:     -0.177D-03 0.455D+00 0.545D+00
 Gap=     0.182 Goal=   None    Shift=    0.000
 RMSDP=4.47D-04 MaxDP=4.51D-02 DE=-4.38D-01 OVMax= 5.00D-02

 Cycle   4  Pass 1  IDiag  1:
 RMSU=  3.20D-04    CP:  9.71D-01  1.01D+00  7.02D-01
 E= -1592.10367605852     Delta-E=       -0.034966810143 Rises=F Damp=F
 DIIS: error= 2.37D-03 at cycle   4 NSaved=   4.
 NSaved= 4 IEnMin= 4 EnMin= -1592.10367605852     IErMin= 4 ErrMin= 2.37D-03
 ErrMax= 2.37D-03  0.00D+00 EMaxC= 1.00D-01 BMatC= 7.30D-03 BMatP= 5.19D-02
 IDIUse=3 WtCom= 9.76D-01 WtEn= 2.37D-02
 Coeff-Com: -0.117D-01 0.102D+00 0.291D+00 0.618D+00
 Coeff-En:   0.000D+00 0.000D+00 0.103D+00 0.897D+00
 Coeff:     -0.114D-01 0.100D+00 0.286D+00 0.625D+00
 Gap=     0.185 Goal=   None    Shift=    0.000
 RMSDP=1.43D-04 MaxDP=1.91D-02 DE=-3.50D-02 OVMax= 1.97D-02

 Cycle   5  Pass 1  IDiag  1:
 RMSU=  9.27D-05    CP:  9.71D-01  1.00D+00  7.57D-01  7.11D-01
 E= -1592.10869441636     Delta-E=       -0.005018357837 Rises=F Damp=F
 DIIS: error= 8.72D-04 at cycle   5 NSaved=   5.
 NSaved= 5 IEnMin= 5 EnMin= -1592.10869441636     IErMin= 5 ErrMin= 8.72D-04
 ErrMax= 8.72D-04  0.00D+00 EMaxC= 1.00D-01 BMatC= 8.44D-04 BMatP= 7.30D-03
 IDIUse=3 WtCom= 9.91D-01 WtEn= 8.72D-03
 Coeff-Com: -0.664D-02 0.240D-01 0.119D+00 0.356D+00 0.507D+00
 Coeff-En:   0.000D+00 0.000D+00 0.000D+00 0.324D-01 0.968D+00
 Coeff:     -0.659D-02 0.238D-01 0.118D+00 0.353D+00 0.511D+00
 Gap=     0.186 Goal=   None    Shift=    0.000
 RMSDP=4.77D-05 MaxDP=5.35D-03 DE=-5.02D-03 OVMax= 4.30D-03

 Cycle   6  Pass 1  IDiag  1:
 RMSU=  3.04D-05    CP:  9.71D-01  1.00D+00  7.56D-01  7.44D-01  6.21D-01
 E= -1592.10929808252     Delta-E=       -0.000603666161 Rises=F Damp=F
 DIIS: error= 1.49D-04 at cycle   6 NSaved=   6.
 NSaved= 6 IEnMin= 6 EnMin= -1592.10929808252     IErMin= 6 ErrMin= 1.49D-04
 ErrMax= 1.49D-04  0.00D+00 EMaxC= 1.00D-01 BMatC= 5.14D-05 BMatP= 8.44D-04
 IDIUse=3 WtCom= 9.99D-01 WtEn= 1.49D-03
 Coeff-Com: -0.259D-02 0.330D-02 0.325D-01 0.124D+00 0.264D+00 0.579D+00
 Coeff-En:   0.000D+00 0.000D+00 0.000D+00 0.000D+00 0.000D+00 0.100D+01
 Coeff:     -0.259D-02 0.329D-02 0.325D-01 0.124D+00 0.264D+00 0.580D+00
 Gap=     0.186 Goal=   None    Shift=    0.000
 RMSDP=1.40D-05 MaxDP=9.38D-04 DE=-6.04D-04 OVMax= 1.16D-03

 Cycle   7  Pass 1  IDiag  1:
 RMSU=  8.57D-06    CP:  9.71D-01  1.00D+00  7.59D-01  7.46D-01  6.34D-01
                    CP:  6.55D-01
 E= -1592.10933509237     Delta-E=       -0.000037009855 Rises=F Damp=F
 DIIS: error= 4.28D-05 at cycle   7 NSaved=   7.
 NSaved= 7 IEnMin= 7 EnMin= -1592.10933509237     IErMin= 7 ErrMin= 4.28D-05
 ErrMax= 4.28D-05  0.00D+00 EMaxC= 1.00D-01 BMatC= 4.10D-06 BMatP= 5.14D-05
 IDIUse=1 WtCom= 1.00D+00 WtEn= 0.00D+00
 Coeff-Com: -0.101D-02 0.218D-03 0.877D-02 0.422D-01 0.107D+00 0.309D+00
 Coeff-Com:  0.533D+00
 Coeff:     -0.101D-02 0.218D-03 0.877D-02 0.422D-01 0.107D+00 0.309D+00
 Coeff:      0.533D+00
 Gap=     0.186 Goal=   None    Shift=    0.000
 RMSDP=3.65D-06 MaxDP=3.46D-04 DE=-3.70D-05 OVMax= 3.07D-04

 Cycle   8  Pass 1  IDiag  1:
 RMSU=  2.57D-06    CP:  9.71D-01  1.00D+00  7.59D-01  7.47D-01  6.41D-01
                    CP:  6.98D-01  7.61D-01
 E= -1592.10933821987     Delta-E=       -0.000003127499 Rises=F Damp=F
 DIIS: error= 8.81D-06 at cycle   8 NSaved=   8.
 NSaved= 8 IEnMin= 8 EnMin= -1592.10933821987     IErMin= 8 ErrMin= 8.81D-06
 ErrMax= 8.81D-06  0.00D+00 EMaxC= 1.00D-01 BMatC= 2.21D-07 BMatP= 4.10D-06
 IDIUse=1 WtCom= 1.00D+00 WtEn= 0.00D+00
 Coeff-Com: -0.246D-03-0.527D-04 0.650D-03 0.689D-02 0.216D-01 0.789D-01
 Coeff-Com:  0.227D+00 0.665D+00
 Coeff:     -0.246D-03-0.527D-04 0.650D-03 0.689D-02 0.216D-01 0.789D-01
 Coeff:      0.227D+00 0.665D+00
 Gap=     0.186 Goal=   None    Shift=    0.000
 RMSDP=1.10D-06 MaxDP=7.86D-05 DE=-3.13D-06 OVMax= 1.02D-04

 Cycle   9  Pass 1  IDiag  1:
 RMSU=  8.59D-07    CP:  9.71D-01  1.00D+00  7.59D-01  7.47D-01  6.43D-01
                    CP:  6.96D-01  8.09D-01  8.54D-01
 E= -1592.10933838890     Delta-E=       -0.000000169028 Rises=F Damp=F
 DIIS: error= 3.44D-06 at cycle   9 NSaved=   9.
 NSaved= 9 IEnMin= 9 EnMin= -1592.10933838890     IErMin= 9 ErrMin= 3.44D-06
 ErrMax= 3.44D-06  0.00D+00 EMaxC= 1.00D-01 BMatC= 3.07D-08 BMatP= 2.21D-07
 IDIUse=1 WtCom= 1.00D+00 WtEn= 0.00D+00
 Coeff-Com: -0.224D-04-0.159D-04-0.725D-03-0.137D-02-0.169D-02 0.299D-02
 Coeff-Com:  0.420D-01 0.316D+00 0.642D+00
 Coeff:     -0.224D-04-0.159D-04-0.725D-03-0.137D-02-0.169D-02 0.299D-02
 Coeff:      0.420D-01 0.316D+00 0.642D+00
 Gap=     0.186 Goal=   None    Shift=    0.000
 RMSDP=3.70D-07 MaxDP=2.70D-05 DE=-1.69D-07 OVMax= 3.49D-05

 Cycle  10  Pass 1  IDiag  1:
 RMSU=  2.28D-07    CP:  9.71D-01  1.00D+00  7.59D-01  7.48D-01  6.43D-01
                    CP:  7.01D-01  8.18D-01  9.05D-01  7.82D-01
 E= -1592.10933841378     Delta-E=       -0.000000024881 Rises=F Damp=F
 DIIS: error= 9.82D-07 at cycle  10 NSaved=  10.
 NSaved=10 IEnMin=10 EnMin= -1592.10933841378     IErMin=10 ErrMin= 9.82D-07
 ErrMax= 9.82D-07  0.00D+00 EMaxC= 1.00D-01 BMatC= 1.72D-09 BMatP= 3.07D-08
 IDIUse=1 WtCom= 1.00D+00 WtEn= 0.00D+00
 Coeff-Com:  0.132D-05 0.925D-06-0.376D-03-0.100D-02-0.208D-02-0.354D-02
 Coeff-Com:  0.200D-02 0.956D-01 0.269D+00 0.641D+00
 Coeff:      0.132D-05 0.925D-06-0.376D-03-0.100D-02-0.208D-02-0.354D-02
 Coeff:      0.200D-02 0.956D-01 0.269D+00 0.641D+00
 Gap=     0.186 Goal=   None    Shift=    0.000
 RMSDP=9.42D-08 MaxDP=6.06D-06 DE=-2.49D-08 OVMax= 1.02D-05

 Cycle  11  Pass 1  IDiag  1:
 RMSU=  6.40D-08    CP:  9.71D-01  1.00D+00  7.59D-01  7.48D-01  6.43D-01
                    CP:  7.01D-01  8.21D-01  9.19D-01  8.21D-01  8.47D-01
 E= -1592.10933841503     Delta-E=       -0.000000001246 Rises=F Damp=F
 DIIS: error= 5.74D-07 at cycle  11 NSaved=  11.
 NSaved=11 IEnMin=11 EnMin= -1592.10933841503     IErMin=11 ErrMin= 5.74D-07
 ErrMax= 5.74D-07  0.00D+00 EMaxC= 1.00D-01 BMatC= 3.05D-10 BMatP= 1.72D-09
 IDIUse=1 WtCom= 1.00D+00 WtEn= 0.00D+00
 Coeff-Com:  0.223D-05 0.524D-05-0.145D-03-0.430D-03-0.104D-02-0.236D-02
 Coeff-Com: -0.363D-02 0.216D-01 0.816D-01 0.348D+00 0.557D+00
 Coeff:      0.223D-05 0.524D-05-0.145D-03-0.430D-03-0.104D-02-0.236D-02
 Coeff:     -0.363D-02 0.216D-01 0.816D-01 0.348D+00 0.557D+00
 Gap=     0.186 Goal=   None    Shift=    0.000
 RMSDP=3.10D-08 MaxDP=2.28D-06 DE=-1.25D-09 OVMax= 2.43D-06

 Cycle  12  Pass 1  IDiag  1:
 RMSU=  2.10D-08    CP:  9.71D-01  1.00D+00  7.59D-01  7.48D-01  6.43D-01
                    CP:  7.01D-01  8.22D-01  9.23D-01  8.32D-01  8.80D-01
                    CP:  7.73D-01
 E= -1592.10933841532     Delta-E=       -0.000000000296 Rises=F Damp=F
 DIIS: error= 8.31D-08 at cycle  12 NSaved=  12.
 NSaved=12 IEnMin=12 EnMin= -1592.10933841532     IErMin=12 ErrMin= 8.31D-08
 ErrMax= 8.31D-08  0.00D+00 EMaxC= 1.00D-01 BMatC= 1.55D-11 BMatP= 3.05D-10
 IDIUse=1 WtCom= 1.00D+00 WtEn= 0.00D+00
 Coeff-Com:  0.177D-06 0.242D-05-0.180D-04-0.523D-04-0.179D-03-0.469D-03
 Coeff-Com: -0.164D-02-0.163D-02 0.172D-02 0.627D-01 0.202D+00 0.737D+00
 Coeff:      0.177D-06 0.242D-05-0.180D-04-0.523D-04-0.179D-03-0.469D-03
 Coeff:     -0.164D-02-0.163D-02 0.172D-02 0.627D-01 0.202D+00 0.737D+00
 Gap=     0.186 Goal=   None    Shift=    0.000
 RMSDP=1.07D-08 MaxDP=6.65D-07 DE=-2.96D-10 OVMax= 1.26D-06

 Cycle  13  Pass 1  IDiag  1:
[...]
 011,-0.00000009,-0.00000011,0.00000004,0.00000004,-0.00000003,0.000000
 05,-0.00000001,0.00000027,0.00000013,-0.00000003,0.00000043,-0.0000001
 1,0.00000013,-0.00000008,-0.00000002,-0.00000001,-0.00000010,0.0000001
 0,0.00000004,0.00000021,-0.00000003,-0.00000018,-0.00004320,-0.0005609
 8,-0.00041187,0.00005713,0.00014978,-0.00010009,0.00000707,0.00004884,
 0.00001284,0.00179698,0.00236139,0.00149290,0.00284864,-0.00320109,-0.
 00760482,-0.00042593,-0.00000743,0.00055754,0.07624521,0.00914538,-0.3
 2689775,0.00153456,-0.00326281,0.00073117,0.00390127,0.00433504,-0.009
 71543,-0.00127546,-0.00009030,0.00052131,-0.00024352,0.00004825,-0.000
 17166,-0.08342155,-0.00962983,0.34163071,-0.00000110,0.00000058,0.0000
 0087,-0.00000096,0.00000035,-0.00000013,-0.00000268,0.00000069,-0.0000
 0711,-0.00000030,-0.00000008,0.00000040,-0.00000009,0.00000039,-0.0000
 0004,0.00000763,0.00000407,-0.00000199,-0.00000131,-0.00000236,0.00000
 035,0.00000014,0.00000016,0.00000009,-0.00000694,-0.00001189,0.0000125
 9,-0.00000037,-0.00000333,0.00000109,0.00000988,0.00001749,-0.00008031
 ,0.00000116,-0.00000190,-0.00000137,-0.00000070,-0.00000058,0.00000037
 ,0.00000039,-0.00000131,-0.00000092,-0.00000098,0.00000314,-0.00000040
 ,0.00000899,0.00000232,-0.00000056,-0.00000102,0.00000019,-0.00000010,
 0.00000052,-0.00000052,0.00000051,-0.00011130,-0.00003793,0.00000238,-
 0.00000828,-0.00000215,-0.00000483,0.00000041,0.00000270,0.00000003,0.
 00000149,0.00000131,-0.00000386,-0.00000006,-0.00000025,0.00000119,-0.
 00000018,0.00000119,-0.00000025,-0.00000160,0.00000162,-0.00000038,0.0
 0000096,-0.00000289,0.00000122,0.00000020,0.00000141,-0.00000088,-0.00
 000097,-0.00000127,-0.00000039,0.00000099,-0.00000143,0.00000083,-0.00
 000012,0.00000004,0.00000006,0.00000006,0.00000011,-0.00000010,-0.0000
 0164,-0.00000988,-0.00000046,0.00000085,0.00000298,0.00000171,0.000004
 92,0.00000952,-0.00000317,-0.00001240,-0.00001703,-0.00000694,0.000003
 57,0.00000548,0.00000624,0.00000069,0.00000202,-0.00000044,0.00001604,
 0.00001424,0.00000825,-0.00001171,-0.00002131,-0.00002081,0.00011733,-
 0.00000071,0.00002865,0.00001871,-0.00000679,0.00000007,-0.00007498,-0
 .00003721,0.00000804,-0.00001466,0.00000702,-0.00002182,0.00000068,0.0
 0000228,0.00000319,0.00000174,0.00000008,0.00000261,-0.00000016,0.0000
 0025,-0.00000017,0.00000017,0.,-0.00000032,-0.00000358,0.00001890,0.00
 000709,0.00001063,0.00000188,0.00000596,0.00000260,0.00000050,0.000001
 19,-0.00000147,0.00000329,0.00000058,-0.00000104,-0.00000051,0.0000000
 5,0.00000008,-0.00000023,-0.00000011,-0.00000002,0.00000026,0.00000012
 ,-0.00000002,-0.00000005,0.00000003,0.00000013,0.00000002,0.,0.0000001
 0,0.00000007,-0.00000002,-0.00000002,0.00000004,0.00000006,0.,0.000000
 11,-0.00000004,0.00000010,0.00000003,0.,0.,-0.00000026,-0.00000008,-0.
 00000007,0.00000003,-0.00000003,-0.00000005,0.00000023,0.00000018,0.00
 000013,0.,0.00000002,0.00019005,-0.00027511,0.00000799,-0.00000006,0.0
 0004633,-0.00002711,-0.00009620,-0.00014797,0.00003032,0.00686715,-0.0
 0124213,0.00220215,-0.00094357,-0.00003488,-0.00009763,0.00454036,-0.0
 0482830,-0.00274271,0.00639694,-0.00086033,0.00307077,-0.04210388,0.01
 964817,0.01735762,0.00345044,0.00691488,0.00401559,-0.00099018,0.00009
 114,-0.00029501,-0.00395659,0.00050936,-0.00131757,0.00008605,0.000319
 33,0.00019480,0.03041494,-0.00000505,-0.00000404,0.00000229,-0.0000051
 8,0.00001570,0.00001155,-0.00000382,0.00000618,-0.00002009,-0.00000422
 ,-0.00000695,0.00000362,0.00000090,-0.00000056,-0.00000027,-0.00000499
 ,-0.00002517,-0.00001102,-0.00000483,-0.00000785,0.00000078,0.00000049
 ,-0.00000053,0.00000051,-0.00000434,-0.00001374,0.00002827,-0.00000038
 ,-0.00000400,0.00001080,-0.00004432,0.00008754,-0.00004834,0.00000536,
 -0.00000414,-0.00000749,-0.00000492,-0.00000044,0.00000022,0.00000872,
 -0.00000658,-0.00000303,-0.00000870,0.00000424,-0.00000145,0.00000225,
 0.00000111,0.00000089,-0.00000451,-0.00000065,0.00000026,0.00000466,-0
 .00000307,0.00000383,-0.00004521,-0.00016286,0.00006376,0.00002447,0.0
 0000845,0.00001643,-0.00000805,0.00000308,0.00000062,0.00000540,-0.000
 00154,-0.00000878,-0.00000144,-0.00000061,0.00000540,0.00000063,0.0000
 0095,0.00000057,-0.00000643,0.00000161,-0.00000215,0.00000022,-0.00000
 050,0.00000749,-0.00000002,0.00000045,-0.00000126,-0.00000127,-0.00000
 415,-0.00000325,0.00000658,0.00000236,-0.00000016,-0.00000042,-0.00000
 032,0.00000061,-0.00000038,-0.00000040,-0.00000067,0.00001623,-0.00001
 229,0.00000315,-0.00000617,0.00000179,-0.00000242,0.00000058,0.0000090
 5,-0.00000320,-0.00000439,-0.00001253,-0.00000218,0.00000034,0.0000039
 7,0.00000305,-0.00000692,0.00000265,0.00000260,0.00000605,0.00000998,0
 .00000538,0.00002183,-0.00003224,-0.00000601,0.00001576,0.00004662,-0.
 00001214,0.00001355,0.00000035,0.00000591,0.00005093,-0.00004272,0.000
 03425,-0.00000199,0.00001132,-0.00002045,0.00000251,0.00001198,0.00000
 840,0.00000290,-0.00000214,0.00000309,-0.00000148,0.00000093,-0.000000
 72,-0.00000008,-0.00000056,-0.00000042,0.00000121,0.00000275,0.0000000
 4,0.00000436,0.00000198,0.00000230,-0.00000186,0.00000232,-0.00000008,
 -0.00000016,0.00000004,0.00000191,0.00000261,-0.00000039,-0.00000059,-
 0.00000057,-0.00000027,0.00000004,0.00000007,0.00000023,0.00000003,0.0
 0000012,-0.00000006,0.00000015,-0.00000018,0.00000022,-0.00000004,-0.0
 0000051,0.00000021,0.00000012,0.00000019,0.00000007,0.00000011,0.00000
 004,0.,-0.00000003,-0.00000021,-0.00000011,0.00000001,-0.00000057,-0.0
 0000032,-0.00000029,0.00000002,-0.00000006,0.00000008,0.00000007,0.000
 00031,0.00000016,-0.00000011,0.00000008,0.00000027,0.00045657,-0.00041
 343,-0.00101910,0.00000185,0.00002786,0.00005267,-0.00009760,-0.000412
 00,0.00011924,-0.00183302,-0.00273419,0.00341440,-0.00012680,0.0001730
 5,0.00081301,0.00311425,-0.01632783,-0.01656841,-0.00049167,0.00150322
 ,0.00049412,0.01950343,-0.26336337,-0.13015973,-0.00102559,0.00493386,
 0.00424049,0.00009046,-0.00005607,-0.00009356,0.00042138,0.00137288,-0
 .00007566,-0.00005344,0.00010993,0.00019714,-0.02032146,0.27471285,-0.
 00000053,-0.00000028,0.00000034,0.00000049,-0.00000011,-0.00000147,-0.
 00000115,0.00000032,-0.00000253,0.00000024,0.00000064,-0.00000018,0.,0
 .00000002,0.00000005,0.00000400,0.00000342,0.00000234,-0.00000030,-0.0
 0000060,0.00000026,0.00000014,0.00000008,0.,-0.00000074,-0.00000864,0.
 00000297,0.00000112,0.00000057,-0.00000162,0.00001637,0.00000001,-0.00
 003499,0.00000044,0.00000032,0.00000066,0.00000054,-0.00000012,0.00000
 012,-0.00000019,0.00000057,0.00000005,-0.00000062,0.00000018,-0.000000
 34,0.00000359,-0.00000454,0.00000118,0.00000029,-0.00000003,-0.0000000
 9,-0.00000020,0.00000032,-0.00000044,-0.00006039,-0.00005613,0.0000184
 1,0.00000192,0.00000689,-0.00000527,0.00000106,0.00000342,-0.00000099,
 0.00000137,0.00000024,-0.00000093,0.00000004,-0.00000020,0.00000009,0.
 00000012,-0.00000018,-0.00000005,-0.00000040,0.00000184,0.00000042,0.0
 0000086,-0.00000029,0.00000033,0.00000042,0.00000007,0.00000015,0.0000
 0023,0.00000001,0.00000016,-0.00000004,-0.00000024,0.00000008,0.,0.000
 00005,0.00000003,0.00000002,-0.00000005,-0.00000004,-0.00000018,-0.000
 00259,0.00000098,0.00000005,0.00000061,-0.00000019,0.00000246,0.000004
 71,-0.00000293,-0.00000492,-0.00000883,-0.00000138,0.00000131,0.000002
 94,0.00000176,0.00000002,0.00000033,-0.00000070,0.00000836,0.00001425,
 0.00000119,0.00000672,-0.00003458,-0.00001106,0.00005080,0.00003784,-0
 .00000110,0.00001651,-0.00000477,0.00000539,0.00002740,-0.00005126,0.0
 0003049,-0.00000914,0.00001319,-0.00002463,0.00000229,0.00000920,0.000
 00475,0.00000254,-0.00000098,0.00000326,-0.00000039,0.00000021,-0.0000
 0025,0.00000019,0.00000006,-0.00000056,-0.00000598,0.00000976,0.000002
 07,0.00000476,0.00000214,0.00000192,-0.00000069,0.00000089,0.00000116,
 0.00000011,-0.00000449,0.00000314,0.00000029,0.00000002,0.00000020,-0.
 00000002,0.00000003,-0.00000004,0.00000005,0.,0.00000008,-0.00000001,-
 0.00000005,-0.00000007,-0.00000008,0.,0.,0.00000003,0.,-0.00000005,0.,
 -0.00000005,-0.00000003,0.00000001,0.00000003,0.,-0.00000005,0.,0.0000
 0002,-0.00000003,0.00000002,-0.00000006,0.00000005,0.00000006,0.,0.000
 00011,-0.00000005,0.00000002,-0.00000011,-0.00000002,0.,-0.00010339,0.
 00050261,0.00048421,-0.00002902,-0.00004212,-0.00001905,0.00000810,0.0
 0015703,-0.00004458,0.00235593,0.00268050,-0.00005032,-0.00008563,0.00
 074853,-0.00054813,-0.00078283,0.01358317,0.01046799,0.00314574,0.0013
 6009,-0.00439480,0.01731126,-0.13025626,-0.13803639,0.00190285,-0.0258
 5053,-0.00957287,-0.00029094,-0.00009580,0.00002123,-0.00132484,-0.000
 46300,0.00047454,0.00011124,-0.00121537,-0.00057731,-0.02088343,0.1387
 0206,0.14056925,-0.00000270,-0.00000120,-0.00000018,-0.00000240,0.0000
 0705,0.00000547,-0.00000141,0.00000278,-0.00000638,-0.00000134,-0.0000
 0265,0.00000163,0.00000029,-0.00000017,-0.00000005,-0.00000492,-0.0000
 2067,-0.00000152,-0.00000120,-0.00000258,-0.00000034,0.00000018,-0.000
 00008,0.00000010,-0.00000362,-0.00000978,0.00001137,0.00000202,-0.0000
 0109,0.00000196,-0.00004503,0.00003543,-0.00000269,0.00000180,-0.00000
 188,-0.00000043,-0.00000097,-0.00000005,0.00000001,0.00000194,-0.00000
 118,-0.00000085,-0.00000278,0.00000234,-0.00000132,0.00000627,-0.00000
 035,0.00000043,-0.00000091,-0.00000016,0.00000006,0.00000082,-0.000000
 36,0.00000127,-0.00007853,-0.00015429,0.00009175,0.00001387,-0.0000106
 9,0.00002248,0.00000224,0.00000295,-0.00000154,-0.00000059,-0.00000184
 ,0.00000061,0.00000030,0.00000018,0.00000130,-0.00000009,-0.00000069,0
 .00000040,0.00000249,0.00000423,-0.00000066,-0.00000196,-0.00000146,-0
 .00000023,-0.00000013,-0.00000049,-0.00000019,0.00000036,-0.00000036,-
 0.00000121,0.00000217,-0.00000058,0.00000018,-0.00000007,0.00000004,0.
 00000013,-0.00000014,-0.00000010,-0.00000020,0.00000287,-0.00000776,0.
 00000269,-0.00000107,0.00000159,-0.00000113,0.00000329,0.00000920,-0.0
 0000554,-0.00000776,-0.00001281,0.00000118,0.00000373,0.00000392,-0.00
 000005,-0.00000092,0.00000131,-0.00000073,0.00001751,0.00001395,-0.000
 00395,-0.00001561,0.00000146,0.00000094,0.00001964,-0.00003133,0.00001
 484,0.00000998,0.00000753,-0.00000370,-0.00000694,-0.00000162,-0.00000
 479,-0.00000033,0.00002429,-0.00002076,-0.00000008,-0.00000033,0.00000
 014,0.00000087,0.00000027,0.00000037,0.00000140,-0.00000033,-0.0000001
 4,-0.00000060,0.00000154,-0.00000119,0.00002437,-0.00000811,0.00003397
 ,0.00000783,0.00000372,0.00000287,0.00000857,0.00000596,-0.00000696,0.
 00001612,0.00001797,-0.00001989,0.00000032,-0.00000021,0.00000014,-0.0
 0000011,0.00000003,-0.00000004,0.00000003,0.00000007,0.00000011,0.0000
 0003,-0.00000011,-0.00000003,-0.00000002,0.00000003,0.,-0.00000003,0.0
 0000004,-0.00000003,-0.00000002,-0.00000003,0.00000002,0.,0.00000007,-
 0.00000003,-0.00000001,-0.00000002,0.00000002,-0.00000009,0.,-0.000000
 05,0.,0.00000006,-0.00000005,0.00000004,0.,0.00000005,-0.00000002,-0.0
 0000002,0.00000003,-0.00096212,0.00000303,-0.00030098,0.00005151,-0.00
 000075,-0.00012198,0.00000125,0.00002264,0.00004880,-0.00090114,0.0003
 1917,-0.00011381,0.00694653,0.00001558,0.00207290,0.00646098,-0.000247
 98,0.00305254,0.00428749,0.00323752,-0.00074701,0.00271068,-0.00703984
 ,0.00248319,-0.04842950,-0.04514060,0.02626702,0.00017690,0.00017517,-
 0.00003265,0.00007398,-0.00029451,0.00011861,-0.00397696,0.00014850,-0
 .00126033,-0.00380596,0.00034626,-0.00140619,0.03739741,-0.00000244,-0
 .00000247,0.00000098,-0.00000187,0.00000568,0.00000370,-0.00000147,0.0
 0000293,-0.00000647,-0.00000153,-0.00000242,0.00000129,0.00000040,-0.0
 0000036,-0.00000009,-0.00000019,-0.00000878,-0.00000218,-0.00000181,-0
 .00000279,0.00000016,0.00000030,-0.00000020,0.00000019,-0.00000035,-0.
 00000563,0.00000873,0.00000082,-0.00000028,0.00000325,-0.00000601,0.00
 003243,-0.00001988,0.00000213,-0.00000049,-0.00000265,-0.00000156,-0.0
 0000021,0.00000007,0.00000330,-0.00000242,-0.00000088,-0.00000429,0.00
 000085,-0.00000083,0.00000192,-0.00000323,0.00000065,-0.00000158,-0.00
 000056,0.00000013,0.00000198,-0.00000101,0.00000135,-0.00002757,-0.000
 05602,0.00002740,0.00002203,0.00000305,-0.00000205,-0.00000305,0.00000
 109,0.00000005,-0.00000010,-0.00000222,-0.00000171,-0.00000070,-0.0000
 0051,0.00000193,0.00000042,0.00000024,0.00000015,-0.00000360,0.0000026
 9,-0.00000273,0.00000067,-0.00000102,0.00000426,0.00000057,0.00000071,
 -0.00000041,-0.00000102,-0.00000263,-0.00000078,0.00000260,0.00000148,
 -0.00000028,-0.00000017,-0.00000013,0.00000028,-0.00000019,-0.00000029
 ,-0.00000031,0.00000846,-0.00000290,0.00000293,-0.00000336,-0.00000015
 ,-0.00000242,-0.00000077,0.00000260,-0.00000229,0.00000166,-0.00000245
 ,0.00000328,-0.00000046,0.00000055,-0.00000187,-0.00000349,0.00000057,
 0.00000080,0.00000239,0.00000394,-0.00000184,-0.00000243,-0.00000079,-
 0.00000602,-0.00000780,-0.00001374,0.00000778,0.00000024,0.00000359,-0
 .00000184,0.00000210,0.00000057,-0.00000333,-0.00000598,0.00000282,0.0
 0000143,-0.00000196,-0.00000082,0.00000256,-0.00000011,-0.00000007,-0.
 00000025,-0.00000054,0.00000088,-0.00000075,-0.00000002,0.00000109,-0.
 00000107,-0.00000738,0.00000032,0.00001677,0.00000242,0.00000582,-0.00
 000628,0.00000112,0.00000110,-0.00000338,0.00000773,-0.00000197,-0.000
 00196,0.00000183,-0.00000001,-0.00000009,-0.00000028,0.00000004,0.0000
 0007,0.00000006,0.,0.00000001,0.00000007,-0.00000006,-0.00000003,-0.00
 000020,0.00000010,0.,-0.00000024,0.00000007,0.00000003,0.00000008,-0.0
 0000004,-0.00000002,0.00000002,-0.00000002,0.,-0.00000018,-0.00000007,
 0.00000003,-0.00000024,0.00000004,-0.00000012,0.00000006,0.00000001,0.
 00000002,0.00000010,-0.00000003,0.,-0.00000017,0.00000002,0.00000011,0
 .00007382,0.00011044,0.00008650,-0.00002539,-0.00003157,0.00005953,-0.
 00000900,-0.00000648,-0.00001137,0.00023842,0.00021795,-0.00064219,0.0
 0039570,-0.00241423,-0.00385375,-0.00026441,0.00156893,-0.00022660,-0.
 00495700,-0.01601007,0.01383344,0.00080090,0.00313080,-0.00325022,-0.0
 4513036,-0.28370605,0.11179415,-0.00023639,-0.00088787,0.00064792,0.00
 003662,0.00001373,-0.00015085,0.00028772,0.00131836,0.00030893,0.00023
 582,0.00058652,0.00025291,0.04858317,0.29615108,0.00000074,0.00000130,
 -0.00000043,0.00000008,-0.00000168,0.00000048,0.00000101,-0.00000054,0
 .00000340,0.00000048,0.00000046,-0.00000036,-0.00000018,0.00000024,0.0
 0000002,-0.00000055,-0.00000208,0.00000093,0.00000095,0.00000129,-0.00
 000028,-0.00000013,0.00000008,-0.00000009,-0.00000093,0.00000302,-0.00
 000427,-0.00000033,-0.00000107,-0.00000131,-0.00001207,-0.00000326,0.0
 0002024,-0.00000043,-0.00000011,0.00000135,0.00000066,0.00000019,-0.00
 000005,-0.00000206,0.00000098,0.00000033,0.00000178,0.00000033,0.00000
 015,0.00000231,0.00000276,-0.00000097,0.00000065,0.00000023,0.00000003
 ,-0.00000079,0.00000053,-0.00000045,-0.00000341,0.00001281,0.00001681,
 0.00000689,-0.00000565,-0.00000216,0.00000183,-0.00000207,-0.00000023,
 -0.00000068,0.00000105,0.00000117,0.00000073,0.00000106,-0.00000101,-0
 .00000028,-0.00000011,-0.00000002,0.00000158,0.00000089,-0.00000087,0.
 00000005,-0.00000065,-0.00000087,-0.00000012,0.00000027,0.00000002,-0.
 00000009,0.00000033,0.00000070,-0.00000095,-0.00000108,0.00000043,0.00
 000005,0.00000008,-0.00000013,0.00000009,0.00000018,0.00000014,-0.0000
 0444,0.00000008,-0.00000046,0.00000173,0.00000035,0.00000084,0.0000012
 6,0.00000020,-0.00000018,-0.00000258,-0.00000085,-0.00000061,0.0000009
 8,0.00000027,0.00000027,0.00000202,-0.00000015,-0.00000089,0.00000222,
 -0.00000204,-0.00000081,-0.00000322,0.00000247,0.00000142,0.00001255,0
 .00000101,-0.00000748,0.00000344,-0.00000183,0.00000197,-0.00000618,-0
 .00000110,0.00000463,-0.00000613,-0.00000078,-0.00000022,0.00000059,0.
 00000022,-0.00000139,-0.00000021,0.,0.00000041,0.00000059,-0.00000016,
 -0.00000014,-0.00000049,0.00000013,0.00000040,-0.00000004,0.00000260,0
 .00000660,-0.00000096,0.00000055,-0.00000268,0.00000247,-0.00000124,-0
 .00000044,0.00000122,0.00000515,-0.00000255,-0.00000115,0.00000007,0.0
 0000016,0.00000018,0.,-0.00000002,-0.00000006,0.00000002,0.,-0.0000000
 3,0.00000001,-0.00000001,0.00000013,-0.00000004,0.00000002,0.00000017,
 -0.00000006,-0.00000002,-0.00000007,0.,0.,-0.00000002,0.00000001,0.,0.
 00000011,0.00000004,0.,0.00000014,-0.00000003,0.00000004,-0.00000004,-
 0.00000001,-0.00000002,-0.00000008,0.00000003,0.,0.00000011,0.,-0.0000
 0006,-0.00030038,0.00003448,0.00009010,0.00000725,-0.00002507,-0.00000
 763,0.00001152,0.00009061,0.00001238,-0.00009428,-0.00063874,-0.000729
 52,0.00194590,-0.00297253,-0.00067414,0.00296194,-0.00116166,-0.004403
 29,-0.00275788,-0.01618956,0.01042499,0.00467134,0.02685427,-0.0072356
 4,0.02628244,0.11178543,-0.11147300,-0.00011134,-0.00075414,0.00035491
 ,0.00023823,0.00127024,-0.00047932,-0.00123225,0.00074499,0.00057145,-
 0.00145378,-0.00018906,0.00123414,-0.03016981,-0.11886399,0.11228308\\
 -0.00000101,0.00000378,0.00000222,-0.00000403,0.00000361,0.00000446,0.
 00000278,0.00000254,0.00000111,-0.00000055,0.00000235,0.00000344,-0.00
 000048,0.00000276,0.00000317,0.00000094,0.00000001,0.00000010,0.000001
 70,-0.00000036,0.00000193,0.00000063,-0.00000035,0.00000280,0.00000366
 ,-0.00000336,-0.00000116,-0.00000695,-0.00000289,-0.00000576,-0.000005
 18,0.00000113,0.00000298,-0.00001142,-0.00000070,-0.00000032,0.0000021
 8,0.00000086,0.00000323,-0.00000183,-0.00000024,0.00000229,0.00002690,
 -0.00000797,0.00000811,-0.00000049,-0.00000184,0.00000237,0.00000177,-
 0.00000143,0.00000166,0.00000185,-0.00000058,0.00000102,0.00001255,-0.
 00000637,0.00000267,0.00000044,0.00000305,0.00000078,-0.00000064,0.000
 00157,0.00000177,-0.00000166,0.00000232,0.00000204,-0.00000166,0.00000
 217,0.00000204,-0.00000053,0.00000361,0.00000294,0.00000162,-0.0000014
 6,0.00000741,-0.00000077,-0.00000053,-0.00000107,0.00000150,0.00000015
 ,0.00000252,0.00000080,-0.00000250,0.00000213,0.00000105,-0.00000499,0
 .00000336,0.00000083,0.00000134,-0.00000084,-0.00000014,0.00000034,0.0
 0000110,-0.00002570,-0.00000581,0.00000119,0.00001292,0.00001329,0.000
 01587,-0.00001355,-0.00000724,-0.00000850,-0.00000212,0.00001294,-0.00
 000350,0.00000134,-0.00000216,0.00000200,0.00000775,0.00000421,-0.0000
 1874,0.00000148,-0.00001628,-0.00000615,-0.00000301,0.00000605,0.00000
 014,-0.00000071,-0.00000172,-0.00000368,-0.00000098,-0.00000052,-0.000
 00270,-0.00000178,0.00000101,-0.00000210,-0.00000078,-0.00000066,-0.00
 000271,0.00000094,-0.00000389,-0.00000483,0.00000055,-0.00000053,-0.00
 000291,0.00000004,-0.00000097,-0.00000419,0.00000311,-0.00000325,-0.00
 000031,0.00000252,-0.00000144,-0.00000113,-0.00000094,0.00000208,-0.00
 000093,-0.00000075,-0.00000083,-0.00000024,0.00000306,-0.00000425,-0.0
 0000309,-0.00000276,0.00001002,0.00000077,-0.00000043,-0.00000181,-0.0
 0000147,-0.00000048,0.00000021,-0.00000365,0.00000018,-0.00000020,-0.0
 0000206,-0.00000070,-0.00000024,-0.00000304,-0.00000109,-0.00000136,-0
 .00000057,0.00000094,-0.00000056,-0.00000109,-0.00000173,0.00000055,0.
 00000013,-0.00000049,-0.00000024,-0.00000249,-0.00000005,0.00000061,-0
 .00000401,-0.00000091,0.00000154,-0.00000138,-0.00000189,0.00000192,-0
 .00000230,-0.00000098,0.00000050,-0.00000229,0.00000031,0.00000062,-0.
 00000705,0.00000111,0.00000391,0.00000110,-0.00000040,-0.00000002,0.00
 000478,-0.00000270,0.00000816,0.00001685,0.00000055,-0.00000204,-0.000
 00390,0.00000082,-0.00000422,-0.00000192,-0.00000048,-0.00000535,-0.00
 000066,0.00000336,0.00000197,-0.00000370,0.00000080,0.00000173,0.00000
 293,0.00000103,-0.00000044,0.00000171,-0.00000128,0.00000149,-0.000000
 39,0.00000105,-0.00000221,0.00000116,-0.00000049,0.00000042,-0.0000015
 1,-0.00000054,-0.00000099,0.00000006\\\@


 THERE IS NO CURE FOR BIRTH AND DEATH SAVE TO ENJOY THE INTERVAL.

                               -- GEORGE SANTAYANA
 Job cpu time:       1 days 22 hours  7 minutes  7.7 seconds.
 Elapsed time:       0 days  2 hours 18 minutes 26.0 seconds.
 File lengths (MBytes):  RWF=   4201 Int=      0 D2E=      0 Chk=     66 Scr=      1
 Normal termination of Gaussian 16 at Tue Mar 16 20:27:26 2021.
