 Entering Gaussian System, Link 0=/s/ls4/groups/g0130/bin/g16/g16
 Input=int_3_w.gjf
 Output=int_3_w.log
 Initial command:
 /s/ls4/groups/g0130/bin/g16/l1.exe "/dev/shm/scratch_aglubshev/Gau-9637.inp" -scrdir="/dev/shm/scratch_aglubshev/"
 Entering Link 1 = /s/ls4/groups/g0130/bin/g16/l1.exe PID=      9638.
  
 Copyright (c) 1988,1990,1992,1993,1995,1998,2003,2009,2016,
            Gaussian, Inc.  All Rights Reserved.
  
 This is part of the Gaussian(R) 16 program.  It is based on
 the Gaussian(R) 09 system (copyright 2009, Gaussian, Inc.),
 the Gaussian(R) 03 system (copyright 2003, Gaussian, Inc.),
 the Gaussian(R) 98 system (copyright 1998, Gaussian, Inc.),
 the Gaussian(R) 94 system (copyright 1995, Gaussian, Inc.),
 the Gaussian 92(TM) system (copyright 1992, Gaussian, Inc.),
 the Gaussian 90(TM) system (copyright 1990, Gaussian, Inc.),
 the Gaussian 88(TM) system (copyright 1988, Gaussian, Inc.),
 the Gaussian 86(TM) system (copyright 1986, Carnegie Mellon
 University), and the Gaussian 82(TM) system (copyright 1983,
 Carnegie Mellon University). Gaussian is a federally registered
 trademark of Gaussian, Inc.
  
 This software contains proprietary and confidential information,
 including trade secrets, belonging to Gaussian, Inc.
  
 This software is provided under written license and may be
 used, copied, transmitted, or stored only in accord with that
 written license.
  
 The following legend is applicable only to US Government
 contracts under FAR:
  
                    RESTRICTED RIGHTS LEGEND
  
 Use, reproduction and disclosure by the US Government is
 subject to restrictions as set forth in subparagraphs (a)
 and (c) of the Commercial Computer Software - Restricted
 Rights clause in FAR 52.227-19.
  
 Gaussian, Inc.
 340 Quinnipiac St., Bldg. 40, Wallingford CT 06492
  
  
 ---------------------------------------------------------------
 Warning -- This program may not be used in any manner that
 competes with the business of Gaussian, Inc. or will provide
 assistance to any competitor of Gaussian, Inc.  The licensee
 of this program is prohibited from giving any competitor of
 Gaussian, Inc. access to this program.  By using this program,
 the user acknowledges that Gaussian, Inc. is engaged in the
 business of creating and licensing software in the field of
 computational chemistry and represents and warrants to the
 licensee that it is not a competitor of Gaussian, Inc. and that
 it will not use this program in any manner prohibited above.
 ---------------------------------------------------------------
  

 Cite this work as:
 Gaussian 16, Revision A.03,
 M. J. Frisch, G. W. Trucks, H. B. Schlegel, G. E. Scuseria, 
 M. A. Robb, J. R. Cheeseman, G. Scalmani, V. Barone, 
 G. A. Petersson, H. Nakatsuji, X. Li, M. Caricato, A. V. Marenich, 
 J. Bloino, B. G. Janesko, R. Gomperts, B. Mennucci, H. P. Hratchian, 
 J. V. Ortiz, A. F. Izmaylov, J. L. Sonnenberg, D. Williams-Young, 
 F. Ding, F. Lipparini, F. Egidi, J. Goings, B. Peng, A. Petrone, 
 T. Henderson, D. Ranasinghe, V. G. Zakrzewski, J. Gao, N. Rega, 
 G. Zheng, W. Liang, M. Hada, M. Ehara, K. Toyota, R. Fukuda, 
 J. Hasegawa, M. Ishida, T. Nakajima, Y. Honda, O. Kitao, H. Nakai, 
 T. Vreven, K. Throssell, J. A. Montgomery, Jr., J. E. Peralta, 
 F. Ogliaro, M. J. Bearpark, J. J. Heyd, E. N. Brothers, K. N. Kudin, 
 V. N. Staroverov, T. A. Keith, R. Kobayashi, J. Normand, 
 K. Raghavachari, A. P. Rendell, J. C. Burant, S. S. Iyengar, 
 J. Tomasi, M. Cossi, J. M. Millam, M. Klene, C. Adamo, R. Cammi, 
 J. W. Ochterski, R. L. Martin, K. Morokuma, O. Farkas, 
 J. B. Foresman, and D. J. Fox, Gaussian, Inc., Wallingford CT, 2016.
 
 ******************************************
 Gaussian 16:  ES64L-G16RevA.03 25-Dec-2016
                21-Apr-2021 
 ******************************************
 %chk=int_3_w.chk
 %nprocshared=20
 Will use up to   20 processors via shared memory.
 %mem=46GB
 ----------------------------------------------------------------------
 #p opt PBE1PBE/DEF2SVP empiricaldispersion=gd3bj scrf=(SMD, solvent=Wa
 ter) freq=noraman
 ----------------------------------------------------------------------
 1/18=20,19=15,26=3,38=1/1,3;
 2/9=110,12=2,17=6,18=5,40=1/2;
 3/5=43,7=101,11=2,25=1,30=1,70=32201,71=1,72=1,74=-13,124=41/1,2,3;
 4//1;
 5/5=2,38=5,53=1/2;
 6/7=2,8=2,9=2,10=2,28=1/1;
 7//1,2,3,16;
 1/18=20,19=15,26=3/3(2);
 2/9=110/2;
 99//99;
 2/9=110/2;
 3/5=43,7=101,11=2,25=1,30=1,70=32205,71=1,72=1,74=-13,124=41/1,2,3;
 4/5=5,16=3,69=1/1;
 5/5=2,38=5,53=1/2;
 7//1,2,3,16;
 1/18=20,19=15,26=3/3(-5);
 2/9=110/2;
 6/7=2,8=2,9=2,10=2,19=2,28=1/1;
 99/9=1/99;
 Leave Link    1 at Wed Apr 21 17:01:20 2021, MaxMem=  6174015488 cpu:               1.0 elap:               0.1
 (Enter /s/ls4/groups/g0130/bin/g16/l101.exe)
 ----
 Name
 ----
 Symbolic Z-matrix:
 Charge =  1 Multiplicity = 1
 N                     0.50708  -1.53523  -1.24323 
 C                    -0.86451  -2.08139  -2.04615 
 C                    -0.13102  -1.28605   0.09075 
 H                    -0.51687  -2.42492  -3.03339 
 H                    -1.34896  -2.93574  -1.54973 
 C                    -1.861    -0.92549  -2.20369 
 H                     0.76074  -1.03822   0.6882 
 H                    -0.62201  -2.14679   0.56856 
 C                    -1.08922  -0.08419   0.05122 
 C                    -1.12914   0.24902  -2.84977 
 C                    -2.32764  -0.48931  -0.78819 
 C                    -0.35781   1.06062  -0.65096 
 H                    -0.76642  -0.00501  -3.85631 
 H                    -1.76894   1.13791  -2.92396 
 N                     0.07796   0.62819  -2.02722 
 H                    -2.76353  -1.37308  -0.29741 
 H                     0.54727   1.35126  -0.09838 
 H                    -0.97568   1.95984  -0.77329 
 N                    -3.33628   0.53279  -0.81632 
 H                    -3.02243   1.49354  -0.85034 
 C                    -3.02984  -1.32434  -3.08847 
 H                    -3.75824  -0.50493  -3.16852 
 H                    -2.68427  -1.58563  -4.10007 
 H                    -3.5439   -2.20233  -2.67024 
 C                    -1.47298   0.34558   1.4581 
 H                    -2.13383   1.22363   1.44926 
 H                    -2.00385  -0.4718    1.96847 
 H                    -0.57837   0.59423   2.04852 
 C                     1.66536  -1.33088  -1.55625 
 H                     2.23873  -0.94994  -0.85549 
 H                     1.98422  -1.55576  -2.49789 
 C                     0.82979   1.74035  -2.70562 
 O                     1.95918   1.57583  -3.04836 
 O                     0.04042   2.75617  -2.80076 
 C                     0.45175   4.04115  -3.43984 
 C                     1.61107   4.61915  -2.64976 
 H                     1.33959   4.73253  -1.59029 
 H                     2.50871   3.99252  -2.72915 
 H                     1.84928   5.61434  -3.05097 
 C                     0.79534   3.76317  -4.89146 
 H                     1.68919   3.13288  -4.98371 
 H                    -0.04749   3.27535  -5.40205 
 H                     0.99477   4.71916  -5.39577 
 C                    -0.80056   4.88375  -3.3063 
 H                    -1.64373   4.41243  -3.83093 
 H                    -1.06862   5.0166   -2.24857 
 H                    -0.6229    5.87348  -3.74869 
 C                    -4.76704   0.19598  -0.79648 
 H                    -4.91719  -0.7805   -1.27925 
 H                    -5.09645   0.07078   0.24512 
 C                    -5.65848   1.24481  -1.48704 
 C                    -6.1998    2.3214   -0.76436 
 C                    -5.95362   1.15237  -2.85769 
 C                    -7.00668   3.27085  -1.3891 
 C                    -6.76044   2.10151  -3.483 
 C                    -7.29087   3.16541  -2.75158 
 H                    -5.98505   2.41287   0.29582 
 H                    -5.5462    0.32888  -3.43591 
 H                    -7.41412   4.09469  -0.81006 
 H                    -6.97502   2.00952  -4.54389 
 H                    -7.91951   3.90504  -3.23856 
 
 ITRead=  0  0  0  0  0  0  0  0  0  0  0  0  0  0  0  0  0  0  0  0
 ITRead=  0  0  0  0  0  0  0  0  0  0  0  0  0  0  0  0  0  0  0  0
 ITRead=  0  0  0  0  0  0  0  0  0  0  0  0  0  0  0  0  0  0  0  0
 ITRead=  0
 MicOpt= -1 -1 -1 -1 -1 -1 -1 -1 -1 -1 -1 -1 -1 -1 -1 -1 -1 -1 -1 -1
 MicOpt= -1 -1 -1 -1 -1 -1 -1 -1 -1 -1 -1 -1 -1 -1 -1 -1 -1 -1 -1 -1
 MicOpt= -1 -1 -1 -1 -1 -1 -1 -1 -1 -1 -1 -1 -1 -1 -1 -1 -1 -1 -1 -1
 MicOpt= -1
 NAtoms=     61 NQM=       61 NQMF=       0 NMMI=      0 NMMIF=      0
                NMic=       0 NMicF=      0.
                    Isotopes and Nuclear Properties:
 (Nuclear quadrupole moments (NQMom) in fm**2, nuclear magnetic moments (NMagM)
  in nuclear magnetons)

  Atom         1           2           3           4           5           6           7           8           9          10
 IAtWgt=          14          12          12           1           1          12           1           1          12          12
 AtmWgt=  14.0030740  12.0000000  12.0000000   1.0078250   1.0078250  12.0000000   1.0078250   1.0078250  12.0000000  12.0000000
 NucSpn=           2           0           0           1           1           0           1           1           0           0
 AtZEff=  -0.0000000  -0.0000000  -0.0000000  -0.0000000  -0.0000000  -0.0000000  -0.0000000  -0.0000000  -0.0000000  -0.0000000
 NQMom=    2.0440000   0.0000000   0.0000000   0.0000000   0.0000000   0.0000000   0.0000000   0.0000000   0.0000000   0.0000000
 NMagM=    0.4037610   0.0000000   0.0000000   2.7928460   2.7928460   0.0000000   2.7928460   2.7928460   0.0000000   0.0000000
 AtZNuc=   7.0000000   6.0000000   6.0000000   1.0000000   1.0000000   6.0000000   1.0000000   1.0000000   6.0000000   6.0000000

  Atom        11          12          13          14          15          16          17          18          19          20
 IAtWgt=          12          12           1           1          14           1           1           1          14           1
 AtmWgt=  12.0000000  12.0000000   1.0078250   1.0078250  14.0030740   1.0078250   1.0078250   1.0078250  14.0030740   1.0078250
 NucSpn=           0           0           1           1           2           1           1           1           2           1
 AtZEff=  -0.0000000  -0.0000000  -0.0000000  -0.0000000  -0.0000000  -0.0000000  -0.0000000  -0.0000000  -0.0000000  -0.0000000
 NQMom=    0.0000000   0.0000000   0.0000000   0.0000000   2.0440000   0.0000000   0.0000000   0.0000000   2.0440000   0.0000000
 NMagM=    0.0000000   0.0000000   2.7928460   2.7928460   0.4037610   2.7928460   2.7928460   2.7928460   0.4037610   2.7928460
 AtZNuc=   6.0000000   6.0000000   1.0000000   1.0000000   7.0000000   1.0000000   1.0000000   1.0000000   7.0000000   1.0000000

  Atom        21          22          23          24          25          26          27          28          29          30
 IAtWgt=          12           1           1           1          12           1           1           1          12           1
 AtmWgt=  12.0000000   1.0078250   1.0078250   1.0078250  12.0000000   1.0078250   1.0078250   1.0078250  12.0000000   1.0078250
 NucSpn=           0           1           1           1           0           1           1           1           0           1
 AtZEff=  -0.0000000  -0.0000000  -0.0000000  -0.0000000  -0.0000000  -0.0000000  -0.0000000  -0.0000000  -0.0000000  -0.0000000
 NQMom=    0.0000000   0.0000000   0.0000000   0.0000000   0.0000000   0.0000000   0.0000000   0.0000000   0.0000000   0.0000000
 NMagM=    0.0000000   2.7928460   2.7928460   2.7928460   0.0000000   2.7928460   2.7928460   2.7928460   0.0000000   2.7928460
 AtZNuc=   6.0000000   1.0000000   1.0000000   1.0000000   6.0000000   1.0000000   1.0000000   1.0000000   6.0000000   1.0000000

  Atom        31          32          33          34          35          36          37          38          39          40
 IAtWgt=           1          12          16          16          12          12           1           1           1          12
 AtmWgt=   1.0078250  12.0000000  15.9949146  15.9949146  12.0000000  12.0000000   1.0078250   1.0078250   1.0078250  12.0000000
 NucSpn=           1           0           0           0           0           0           1           1           1           0
 AtZEff=  -0.0000000  -0.0000000  -0.0000000  -0.0000000  -0.0000000  -0.0000000  -0.0000000  -0.0000000  -0.0000000  -0.0000000
 NQMom=    0.0000000   0.0000000   0.0000000   0.0000000   0.0000000   0.0000000   0.0000000   0.0000000   0.0000000   0.0000000
 NMagM=    2.7928460   0.0000000   0.0000000   0.0000000   0.0000000   0.0000000   2.7928460   2.7928460   2.7928460   0.0000000
 AtZNuc=   1.0000000   6.0000000   8.0000000   8.0000000   6.0000000   6.0000000   1.0000000   1.0000000   1.0000000   6.0000000

  Atom        41          42          43          44          45          46          47          48          49          50
 IAtWgt=           1           1           1          12           1           1           1          12           1           1
 AtmWgt=   1.0078250   1.0078250   1.0078250  12.0000000   1.0078250   1.0078250   1.0078250  12.0000000   1.0078250   1.0078250
 NucSpn=           1           1           1           0           1           1           1           0           1           1
 AtZEff=  -0.0000000  -0.0000000  -0.0000000  -0.0000000  -0.0000000  -0.0000000  -0.0000000  -0.0000000  -0.0000000  -0.0000000
 NQMom=    0.0000000   0.0000000   0.0000000   0.0000000   0.0000000   0.0000000   0.0000000   0.0000000   0.0000000   0.0000000
 NMagM=    2.7928460   2.7928460   2.7928460   0.0000000   2.7928460   2.7928460   2.7928460   0.0000000   2.7928460   2.7928460
 AtZNuc=   1.0000000   1.0000000   1.0000000   6.0000000   1.0000000   1.0000000   1.0000000   6.0000000   1.0000000   1.0000000

  Atom        51          52          53          54          55          56          57          58          59          60
 IAtWgt=          12          12          12          12          12          12           1           1           1           1
 AtmWgt=  12.0000000  12.0000000  12.0000000  12.0000000  12.0000000  12.0000000   1.0078250   1.0078250   1.0078250   1.0078250
 NucSpn=           0           0           0           0           0           0           1           1           1           1
 AtZEff=  -0.0000000  -0.0000000  -0.0000000  -0.0000000  -0.0000000  -0.0000000  -0.0000000  -0.0000000  -0.0000000  -0.0000000
 NQMom=    0.0000000   0.0000000   0.0000000   0.0000000   0.0000000   0.0000000   0.0000000   0.0000000   0.0000000   0.0000000
 NMagM=    0.0000000   0.0000000   0.0000000   0.0000000   0.0000000   0.0000000   2.7928460   2.7928460   2.7928460   2.7928460
 AtZNuc=   6.0000000   6.0000000   6.0000000   6.0000000   6.0000000   6.0000000   1.0000000   1.0000000   1.0000000   1.0000000

  Atom        61
 IAtWgt=           1
 AtmWgt=   1.0078250
 NucSpn=           1
 AtZEff=  -0.0000000
 NQMom=    0.0000000
 NMagM=    2.7928460
 AtZNuc=   1.0000000
 Leave Link  101 at Wed Apr 21 17:01:21 2021, MaxMem=  6174015488 cpu:               6.2 elap:               0.3
 (Enter /s/ls4/groups/g0130/bin/g16/l103.exe)

 GradGradGradGradGradGradGradGradGradGradGradGradGradGradGradGradGradGrad
 Berny optimization.
 Initialization pass.
                           ----------------------------
                           !    Initial Parameters    !
                           ! (Angstroms and Degrees)  !
 --------------------------                            --------------------------
 ! Name  Definition              Value          Derivative Info.                !
 --------------------------------------------------------------------------------
 ! R1    R(1,2)                  1.6805         estimate D2E/DX2                !
 ! R2    R(1,3)                  1.4996         estimate D2E/DX2                !
 ! R3    R(1,29)                 1.2171         estimate D2E/DX2                !
 ! R4    R(2,4)                  1.1016         estimate D2E/DX2                !
 ! R5    R(2,5)                  1.1005         estimate D2E/DX2                !
 ! R6    R(2,6)                  1.5342         estimate D2E/DX2                !
 ! R7    R(3,7)                  1.1016         estimate D2E/DX2                !
 ! R8    R(3,8)                  1.1001         estimate D2E/DX2                !
 ! R9    R(3,9)                  1.5376         estimate D2E/DX2                !
 ! R10   R(6,10)                 1.5273         estimate D2E/DX2                !
 ! R11   R(6,11)                 1.5529         estimate D2E/DX2                !
 ! R12   R(6,21)                 1.5192         estimate D2E/DX2                !
 ! R13   R(9,11)                 1.55           estimate D2E/DX2                !
 ! R14   R(9,12)                 1.5292         estimate D2E/DX2                !
 ! R15   R(9,25)                 1.5203         estimate D2E/DX2                !
 ! R16   R(10,13)                1.0996         estimate D2E/DX2                !
 ! R17   R(10,14)                1.0977         estimate D2E/DX2                !
 ! R18   R(10,15)                1.5091         estimate D2E/DX2                !
 ! R19   R(11,16)                1.1009         estimate D2E/DX2                !
 ! R20   R(11,19)                1.4363         estimate D2E/DX2                !
 ! R21   R(12,15)                1.507          estimate D2E/DX2                !
 ! R22   R(12,17)                1.0995         estimate D2E/DX2                !
 ! R23   R(12,18)                1.0979         estimate D2E/DX2                !
 ! R24   R(15,32)                1.5041         estimate D2E/DX2                !
 ! R25   R(19,20)                1.0113         estimate D2E/DX2                !
 ! R26   R(19,48)                1.47           estimate D2E/DX2                !
 ! R27   R(21,22)                1.0993         estimate D2E/DX2                !
 ! R28   R(21,23)                1.1005         estimate D2E/DX2                !
 ! R29   R(21,24)                1.1            estimate D2E/DX2                !
 ! R30   R(25,26)                1.099          estimate D2E/DX2                !
 ! R31   R(25,27)                1.1002         estimate D2E/DX2                !
 ! R32   R(25,28)                1.1003         estimate D2E/DX2                !
 ! R33   R(29,30)                0.9823         estimate D2E/DX2                !
 ! R34   R(29,31)                1.0193         estimate D2E/DX2                !
 ! R35   R(32,33)                1.1917         estimate D2E/DX2                !
 ! R36   R(32,34)                1.29           estimate D2E/DX2                !
 ! R37   R(34,35)                1.4929         estimate D2E/DX2                !
 ! R38   R(35,36)                1.5173         estimate D2E/DX2                !
 ! R39   R(35,40)                1.5174         estimate D2E/DX2                !
 ! R40   R(35,44)                1.5153         estimate D2E/DX2                !
 ! R41   R(36,37)                1.0996         estimate D2E/DX2                !
 ! R42   R(36,38)                1.0976         estimate D2E/DX2                !
 ! R43   R(36,39)                1.0991         estimate D2E/DX2                !
 ! R44   R(40,41)                1.0976         estimate D2E/DX2                !
 ! R45   R(40,42)                1.0996         estimate D2E/DX2                !
 ! R46   R(40,43)                1.0991         estimate D2E/DX2                !
 ! R47   R(44,45)                1.0992         estimate D2E/DX2                !
 ! R48   R(44,46)                1.0992         estimate D2E/DX2                !
 ! R49   R(44,47)                1.0986         estimate D2E/DX2                !
 ! R50   R(48,49)                1.0996         estimate D2E/DX2                !
 ! R51   R(48,50)                1.0996         estimate D2E/DX2                !
 ! R52   R(48,51)                1.54           estimate D2E/DX2                !
 ! R53   R(51,52)                1.4051         estimate D2E/DX2                !
 ! R54   R(51,53)                1.4051         estimate D2E/DX2                !
 ! R55   R(52,54)                1.3939         estimate D2E/DX2                !
 ! R56   R(52,57)                1.0856         estimate D2E/DX2                !
 ! R57   R(53,55)                1.3939         estimate D2E/DX2                !
 ! R58   R(53,58)                1.0856         estimate D2E/DX2                !
 ! R59   R(54,56)                1.3958         estimate D2E/DX2                !
 ! R60   R(54,59)                1.0863         estimate D2E/DX2                !
 ! R61   R(55,56)                1.3958         estimate D2E/DX2                !
 ! R62   R(55,60)                1.0863         estimate D2E/DX2                !
 ! R63   R(56,61)                1.086          estimate D2E/DX2                !
 ! A1    A(2,1,3)               97.569          estimate D2E/DX2                !
 ! A2    A(2,1,29)             135.105          estimate D2E/DX2                !
 ! A3    A(3,1,29)             127.2887         estimate D2E/DX2                !
 ! A4    A(1,2,4)              105.7806         estimate D2E/DX2                !
 ! A5    A(1,2,5)              113.3328         estimate D2E/DX2                !
 ! A6    A(1,2,6)              109.5304         estimate D2E/DX2                !
 ! A7    A(4,2,5)              107.5226         estimate D2E/DX2                !
 ! A8    A(4,2,6)              110.3586         estimate D2E/DX2                !
 ! A9    A(5,2,6)              110.2006         estimate D2E/DX2                !
 ! A10   A(1,3,7)              100.0997         estimate D2E/DX2                !
 ! A11   A(1,3,8)              116.5043         estimate D2E/DX2                !
 ! A12   A(1,3,9)              111.8504         estimate D2E/DX2                !
 ! A13   A(7,3,8)              107.5631         estimate D2E/DX2                !
 ! A14   A(7,3,9)              110.0329         estimate D2E/DX2                !
 ! A15   A(8,3,9)              110.1579         estimate D2E/DX2                !
 ! A16   A(2,6,10)             108.1551         estimate D2E/DX2                !
 ! A17   A(2,6,11)             108.2508         estimate D2E/DX2                !
 ! A18   A(2,6,21)             111.2047         estimate D2E/DX2                !
 ! A19   A(10,6,11)            108.2756         estimate D2E/DX2                !
 ! A20   A(10,6,21)            108.9176         estimate D2E/DX2                !
 ! A21   A(11,6,21)            111.9247         estimate D2E/DX2                !
 ! A22   A(3,9,11)             107.9112         estimate D2E/DX2                !
 ! A23   A(3,9,12)             107.3918         estimate D2E/DX2                !
 ! A24   A(3,9,25)             110.7613         estimate D2E/DX2                !
 ! A25   A(11,9,12)            109.217          estimate D2E/DX2                !
 ! A26   A(11,9,25)            111.9233         estimate D2E/DX2                !
 ! A27   A(12,9,25)            109.5126         estimate D2E/DX2                !
 ! A28   A(6,10,13)            111.5689         estimate D2E/DX2                !
 ! A29   A(6,10,14)            111.8402         estimate D2E/DX2                !
 ! A30   A(6,10,15)            110.2392         estimate D2E/DX2                !
 ! A31   A(13,10,14)           108.5093         estimate D2E/DX2                !
 ! A32   A(13,10,15)           107.0444         estimate D2E/DX2                !
 ! A33   A(14,10,15)           107.4331         estimate D2E/DX2                !
 ! A34   A(6,11,9)             109.0839         estimate D2E/DX2                !
 ! A35   A(6,11,16)            107.4489         estimate D2E/DX2                !
 ! A36   A(6,11,19)            113.1442         estimate D2E/DX2                !
 ! A37   A(9,11,16)            106.544          estimate D2E/DX2                !
 ! A38   A(9,11,19)            112.688          estimate D2E/DX2                !
 ! A39   A(16,11,19)           107.5762         estimate D2E/DX2                !
 ! A40   A(9,12,15)            110.0489         estimate D2E/DX2                !
 ! A41   A(9,12,17)            111.1505         estimate D2E/DX2                !
 ! A42   A(9,12,18)            113.2753         estimate D2E/DX2                !
 ! A43   A(15,12,17)           107.2645         estimate D2E/DX2                !
 ! A44   A(15,12,18)           107.2177         estimate D2E/DX2                !
 ! A45   A(17,12,18)           107.6234         estimate D2E/DX2                !
 ! A46   A(10,15,12)           109.7903         estimate D2E/DX2                !
 ! A47   A(10,15,32)           109.8618         estimate D2E/DX2                !
 ! A48   A(12,15,32)           110.1375         estimate D2E/DX2                !
 ! A49   A(11,19,20)           117.309          estimate D2E/DX2                !
 ! A50   A(11,19,48)           121.3455         estimate D2E/DX2                !
 ! A51   A(20,19,48)           121.3455         estimate D2E/DX2                !
 ! A52   A(6,21,22)            110.8857         estimate D2E/DX2                !
 ! A53   A(6,21,23)            110.8605         estimate D2E/DX2                !
 ! A54   A(6,21,24)            110.344          estimate D2E/DX2                !
 ! A55   A(22,21,23)           108.5491         estimate D2E/DX2                !
 ! A56   A(22,21,24)           108.2396         estimate D2E/DX2                !
 ! A57   A(23,21,24)           107.8627         estimate D2E/DX2                !
 ! A58   A(9,25,26)            111.7284         estimate D2E/DX2                !
 ! A59   A(9,25,27)            109.9424         estimate D2E/DX2                !
 ! A60   A(9,25,28)            110.8061         estimate D2E/DX2                !
 ! A61   A(26,25,27)           107.8879         estimate D2E/DX2                !
 ! A62   A(26,25,28)           108.2199         estimate D2E/DX2                !
 ! A63   A(27,25,28)           108.1361         estimate D2E/DX2                !
 ! A64   A(1,29,30)            115.9206         estimate D2E/DX2                !
 ! A65   A(1,29,31)            119.8848         estimate D2E/DX2                !
 ! A66   A(30,29,31)           124.1946         estimate D2E/DX2                !
 ! A67   A(15,32,33)           120.0905         estimate D2E/DX2                !
 ! A68   A(15,32,34)           108.0387         estimate D2E/DX2                !
 ! A69   A(33,32,34)           131.8706         estimate D2E/DX2                !
 ! A70   A(32,34,35)           122.7359         estimate D2E/DX2                !
 ! A71   A(34,35,36)           108.3897         estimate D2E/DX2                !
 ! A72   A(34,35,40)           108.3138         estimate D2E/DX2                !
 ! A73   A(34,35,44)           102.3093         estimate D2E/DX2                !
 ! A74   A(36,35,40)           113.2602         estimate D2E/DX2                !
 ! A75   A(36,35,44)           111.9462         estimate D2E/DX2                !
 ! A76   A(40,35,44)           111.9202         estimate D2E/DX2                !
 ! A77   A(35,36,37)           110.6315         estimate D2E/DX2                !
 ! A78   A(35,36,38)           111.6984         estimate D2E/DX2                !
 ! A79   A(35,36,39)           108.6882         estimate D2E/DX2                !
 ! A80   A(37,36,38)           109.2984         estimate D2E/DX2                !
 ! A81   A(37,36,39)           108.1713         estimate D2E/DX2                !
 ! A82   A(38,36,39)           108.2556         estimate D2E/DX2                !
 ! A83   A(35,40,41)           111.7155         estimate D2E/DX2                !
 ! A84   A(35,40,42)           110.606          estimate D2E/DX2                !
 ! A85   A(35,40,43)           108.7046         estimate D2E/DX2                !
 ! A86   A(41,40,42)           109.2951         estimate D2E/DX2                !
 ! A87   A(41,40,43)           108.2485         estimate D2E/DX2                !
 ! A88   A(42,40,43)           108.1738         estimate D2E/DX2                !
 ! A89   A(35,44,45)           110.6978         estimate D2E/DX2                !
 ! A90   A(35,44,46)           110.7044         estimate D2E/DX2                !
 ! A91   A(35,44,47)           109.3803         estimate D2E/DX2                !
 ! A92   A(45,44,46)           108.9062         estimate D2E/DX2                !
 ! A93   A(45,44,47)           108.5509         estimate D2E/DX2                !
 ! A94   A(46,44,47)           108.5452         estimate D2E/DX2                !
 ! A95   A(19,48,49)           109.2962         estimate D2E/DX2                !
 ! A96   A(19,48,50)           109.2962         estimate D2E/DX2                !
 ! A97   A(19,48,51)           113.6597         estimate D2E/DX2                !
 ! A98   A(49,48,50)           105.8945         estimate D2E/DX2                !
 ! A99   A(49,48,51)           109.2014         estimate D2E/DX2                !
 ! A100  A(50,48,51)           109.2014         estimate D2E/DX2                !
 ! A101  A(48,51,52)           120.9441         estimate D2E/DX2                !
 ! A102  A(48,51,53)           120.9441         estimate D2E/DX2                !
 ! A103  A(52,51,53)           118.1119         estimate D2E/DX2                !
 ! A104  A(51,52,54)           120.9574         estimate D2E/DX2                !
 ! A105  A(51,52,57)           119.3831         estimate D2E/DX2                !
 ! A106  A(54,52,57)           119.6595         estimate D2E/DX2                !
 ! A107  A(51,53,55)           120.9574         estimate D2E/DX2                !
 ! A108  A(51,53,58)           119.3831         estimate D2E/DX2                !
 ! A109  A(55,53,58)           119.6595         estimate D2E/DX2                !
 ! A110  A(52,54,56)           120.2599         estimate D2E/DX2                !
 ! A111  A(52,54,59)           119.6574         estimate D2E/DX2                !
 ! A112  A(56,54,59)           120.0828         estimate D2E/DX2                !
 ! A113  A(53,55,56)           120.2599         estimate D2E/DX2                !
 ! A114  A(53,55,60)           119.6574         estimate D2E/DX2                !
 ! A115  A(56,55,60)           120.0828         estimate D2E/DX2                !
 ! A116  A(54,56,55)           119.4536         estimate D2E/DX2                !
 ! A117  A(54,56,61)           120.2732         estimate D2E/DX2                !
 ! A118  A(55,56,61)           120.2732         estimate D2E/DX2                !
 ! D1    D(3,1,2,4)           -173.3467         estimate D2E/DX2                !
 ! D2    D(3,1,2,5)            -55.789          estimate D2E/DX2                !
 ! D3    D(3,1,2,6)             67.717          estimate D2E/DX2                !
 ! D4    D(29,1,2,4)             8.8576         estimate D2E/DX2                !
 ! D5    D(29,1,2,5)           126.4153         estimate D2E/DX2                !
 ! D6    D(29,1,2,6)          -110.0787         estimate D2E/DX2                !
 ! D7    D(2,1,3,7)            173.5736         estimate D2E/DX2                !
 ! D8    D(2,1,3,8)             58.0217         estimate D2E/DX2                !
 ! D9    D(2,1,3,9)            -69.9193         estimate D2E/DX2                !
 ! D10   D(29,1,3,7)            -8.3818         estimate D2E/DX2                !
 ! D11   D(29,1,3,8)          -123.9337         estimate D2E/DX2                !
 ! D12   D(29,1,3,9)           108.1252         estimate D2E/DX2                !
 ! D13   D(2,1,29,30)          176.4562         estimate D2E/DX2                !
 ! D14   D(2,1,29,31)           -3.6303         estimate D2E/DX2                !
 ! D15   D(3,1,29,30)           -0.7969         estimate D2E/DX2                !
 ! D16   D(3,1,29,31)          179.1165         estimate D2E/DX2                !
 ! D17   D(1,2,6,10)            52.6684         estimate D2E/DX2                !
 ! D18   D(1,2,6,11)           -64.4373         estimate D2E/DX2                !
 ! D19   D(1,2,6,21)           172.2191         estimate D2E/DX2                !
 ! D20   D(4,2,6,10)           -63.3978         estimate D2E/DX2                !
 ! D21   D(4,2,6,11)           179.4965         estimate D2E/DX2                !
 ! D22   D(4,2,6,21)            56.1529         estimate D2E/DX2                !
 ! D23   D(5,2,6,10)           178.0            estimate D2E/DX2                !
 ! D24   D(5,2,6,11)            60.8943         estimate D2E/DX2                !
 ! D25   D(5,2,6,21)           -62.4493         estimate D2E/DX2                !
 ! D26   D(1,3,9,11)            70.1657         estimate D2E/DX2                !
 ! D27   D(1,3,9,12)           -47.4617         estimate D2E/DX2                !
 ! D28   D(1,3,9,25)          -167.0038         estimate D2E/DX2                !
 ! D29   D(7,3,9,11)          -179.5113         estimate D2E/DX2                !
 ! D30   D(7,3,9,12)            62.8613         estimate D2E/DX2                !
 ! D31   D(7,3,9,25)           -56.6808         estimate D2E/DX2                !
 ! D32   D(8,3,9,11)           -61.087          estimate D2E/DX2                !
 ! D33   D(8,3,9,12)          -178.7144         estimate D2E/DX2                !
 ! D34   D(8,3,9,25)            61.7435         estimate D2E/DX2                !
 ! D35   D(2,6,10,13)           62.4412         estimate D2E/DX2                !
 ! D36   D(2,6,10,14)         -175.8105         estimate D2E/DX2                !
 ! D37   D(2,6,10,15)          -56.3536         estimate D2E/DX2                !
 ! D38   D(11,6,10,13)         179.5309         estimate D2E/DX2                !
 ! D39   D(11,6,10,14)         -58.7207         estimate D2E/DX2                !
 ! D40   D(11,6,10,15)          60.7362         estimate D2E/DX2                !
 ! D41   D(21,6,10,13)         -58.5408         estimate D2E/DX2                !
 ! D42   D(21,6,10,14)          63.2075         estimate D2E/DX2                !
 ! D43   D(21,6,10,15)        -177.3356         estimate D2E/DX2                !
 ! D44   D(2,6,11,9)            57.6662         estimate D2E/DX2                !
 ! D45   D(2,6,11,16)          -57.4584         estimate D2E/DX2                !
 ! D46   D(2,6,11,19)         -176.0525         estimate D2E/DX2                !
 ! D47   D(10,6,11,9)          -59.3619         estimate D2E/DX2                !
 ! D48   D(10,6,11,16)        -174.4866         estimate D2E/DX2                !
 ! D49   D(10,6,11,19)          66.9194         estimate D2E/DX2                !
 ! D50   D(21,6,11,9)         -179.4263         estimate D2E/DX2                !
 ! D51   D(21,6,11,16)          65.4491         estimate D2E/DX2                !
 ! D52   D(21,6,11,19)         -53.145          estimate D2E/DX2                !
 ! D53   D(2,6,21,22)          177.9669         estimate D2E/DX2                !
 ! D54   D(2,6,21,23)          -61.3838         estimate D2E/DX2                !
 ! D55   D(2,6,21,24)           58.0481         estimate D2E/DX2                !
 ! D56   D(10,6,21,22)         -62.9376         estimate D2E/DX2                !
 ! D57   D(10,6,21,23)          57.7117         estimate D2E/DX2                !
 ! D58   D(10,6,21,24)         177.1436         estimate D2E/DX2                !
 ! D59   D(11,6,21,22)          56.7507         estimate D2E/DX2                !
 ! D60   D(11,6,21,23)         177.4            estimate D2E/DX2                !
 ! D61   D(11,6,21,24)         -63.1681         estimate D2E/DX2                !
 ! D62   D(3,9,11,6)           -57.4429         estimate D2E/DX2                !
 ! D63   D(3,9,11,16)           58.2638         estimate D2E/DX2                !
 ! D64   D(3,9,11,19)          176.0143         estimate D2E/DX2                !
 ! D65   D(12,9,11,6)           59.0013         estimate D2E/DX2                !
 ! D66   D(12,9,11,16)         174.708          estimate D2E/DX2                !
 ! D67   D(12,9,11,19)         -67.5415         estimate D2E/DX2                !
 ! D68   D(25,9,11,6)         -179.56           estimate D2E/DX2                !
 ! D69   D(25,9,11,16)         -63.8532         estimate D2E/DX2                !
 ! D70   D(25,9,11,19)          53.8972         estimate D2E/DX2                !
 ! D71   D(3,9,12,15)           57.3617         estimate D2E/DX2                !
 ! D72   D(3,9,12,17)          -61.3194         estimate D2E/DX2                !
 ! D73   D(3,9,12,18)          177.3613         estimate D2E/DX2                !
 ! D74   D(11,9,12,15)         -59.4124         estimate D2E/DX2                !
 ! D75   D(11,9,12,17)        -178.0935         estimate D2E/DX2                !
 ! D76   D(11,9,12,18)          60.5872         estimate D2E/DX2                !
 ! D77   D(25,9,12,15)         177.6988         estimate D2E/DX2                !
 ! D78   D(25,9,12,17)          59.0177         estimate D2E/DX2                !
 ! D79   D(25,9,12,18)         -62.3016         estimate D2E/DX2                !
 ! D80   D(3,9,25,26)          178.256          estimate D2E/DX2                !
 ! D81   D(3,9,25,27)          -61.9861         estimate D2E/DX2                !
 ! D82   D(3,9,25,28)           57.4927         estimate D2E/DX2                !
 ! D83   D(11,9,25,26)         -61.2724         estimate D2E/DX2                !
 ! D84   D(11,9,25,27)          58.4855         estimate D2E/DX2                !
 ! D85   D(11,9,25,28)         177.9643         estimate D2E/DX2                !
 ! D86   D(12,9,25,26)          59.9958         estimate D2E/DX2                !
 ! D87   D(12,9,25,27)         179.7537         estimate D2E/DX2                !
 ! D88   D(12,9,25,28)         -60.7674         estimate D2E/DX2                !
 ! D89   D(6,10,15,12)         -61.4922         estimate D2E/DX2                !
 ! D90   D(6,10,15,32)         177.2419         estimate D2E/DX2                !
 ! D91   D(13,10,15,12)        176.9843         estimate D2E/DX2                !
 ! D92   D(13,10,15,32)         55.7184         estimate D2E/DX2                !
 ! D93   D(14,10,15,12)         60.6058         estimate D2E/DX2                !
 ! D94   D(14,10,15,32)        -60.6601         estimate D2E/DX2                !
 ! D95   D(6,11,19,20)         -87.376          estimate D2E/DX2                !
 ! D96   D(6,11,19,48)          92.624          estimate D2E/DX2                !
 ! D97   D(9,11,19,20)          36.9632         estimate D2E/DX2                !
 ! D98   D(9,11,19,48)        -143.0368         estimate D2E/DX2                !
 ! D99   D(16,11,19,20)        154.1037         estimate D2E/DX2                !
 ! D100  D(16,11,19,48)        -25.8963         estimate D2E/DX2                !
 ! D101  D(9,12,15,10)          60.4112         estimate D2E/DX2                !
 ! D102  D(9,12,15,32)        -178.4887         estimate D2E/DX2                !
 ! D103  D(17,12,15,10)       -178.549          estimate D2E/DX2                !
 ! D104  D(17,12,15,32)        -57.4489         estimate D2E/DX2                !
 ! D105  D(18,12,15,10)        -63.1939         estimate D2E/DX2                !
 ! D106  D(18,12,15,32)         57.9063         estimate D2E/DX2                !
 ! D107  D(10,15,32,33)       -119.1411         estimate D2E/DX2                !
 ! D108  D(10,15,32,34)         60.7467         estimate D2E/DX2                !
 ! D109  D(12,15,32,33)        119.8016         estimate D2E/DX2                !
 ! D110  D(12,15,32,34)        -60.3106         estimate D2E/DX2                !
 ! D111  D(11,19,48,49)        -29.8159         estimate D2E/DX2                !
 ! D112  D(11,19,48,50)         85.6532         estimate D2E/DX2                !
 ! D113  D(11,19,48,51)       -152.0814         estimate D2E/DX2                !
 ! D114  D(20,19,48,49)        150.1841         estimate D2E/DX2                !
 ! D115  D(20,19,48,50)        -94.3468         estimate D2E/DX2                !
 ! D116  D(20,19,48,51)         27.9186         estimate D2E/DX2                !
 ! D117  D(15,32,34,35)       -179.2789         estimate D2E/DX2                !
 ! D118  D(33,32,34,35)          0.5908         estimate D2E/DX2                !
 ! D119  D(32,34,35,36)        -61.8507         estimate D2E/DX2                !
 ! D120  D(32,34,35,40)         61.4067         estimate D2E/DX2                !
 ! D121  D(32,34,35,44)        179.747          estimate D2E/DX2                !
 ! D122  D(34,35,36,37)        -55.5088         estimate D2E/DX2                !
 ! D123  D(34,35,36,38)         66.4888         estimate D2E/DX2                !
 ! D124  D(34,35,36,39)       -174.1373         estimate D2E/DX2                !
 ! D125  D(40,35,36,37)       -175.7294         estimate D2E/DX2                !
 ! D126  D(40,35,36,38)        -53.7318         estimate D2E/DX2                !
 ! D127  D(40,35,36,39)         65.6421         estimate D2E/DX2                !
 ! D128  D(44,35,36,37)         56.588          estimate D2E/DX2                !
 ! D129  D(44,35,36,38)        178.5856         estimate D2E/DX2                !
 ! D130  D(44,35,36,39)        -62.0406         estimate D2E/DX2                !
 ! D131  D(34,35,40,41)        -66.6074         estimate D2E/DX2                !
 ! D132  D(34,35,40,42)         55.3797         estimate D2E/DX2                !
 ! D133  D(34,35,40,43)        174.0063         estimate D2E/DX2                !
 ! D134  D(36,35,40,41)         53.6563         estimate D2E/DX2                !
 ! D135  D(36,35,40,42)        175.6435         estimate D2E/DX2                !
 ! D136  D(36,35,40,43)        -65.7299         estimate D2E/DX2                !
 ! D137  D(44,35,40,41)       -178.6475         estimate D2E/DX2                !
 ! D138  D(44,35,40,42)        -56.6603         estimate D2E/DX2                !
 ! D139  D(44,35,40,43)         61.9663         estimate D2E/DX2                !
 ! D140  D(34,35,44,45)        -60.4002         estimate D2E/DX2                !
 ! D141  D(34,35,44,46)         60.4697         estimate D2E/DX2                !
 ! D142  D(34,35,44,47)       -179.9667         estimate D2E/DX2                !
 ! D143  D(36,35,44,45)       -176.2524         estimate D2E/DX2                !
 ! D144  D(36,35,44,46)        -55.3824         estimate D2E/DX2                !
 ! D145  D(36,35,44,47)         64.1811         estimate D2E/DX2                !
 ! D146  D(40,35,44,45)         55.3524         estimate D2E/DX2                !
 ! D147  D(40,35,44,46)        176.2223         estimate D2E/DX2                !
 ! D148  D(40,35,44,47)        -64.2142         estimate D2E/DX2                !
 ! D149  D(19,48,51,52)        -90.0            estimate D2E/DX2                !
 ! D150  D(19,48,51,53)         90.0            estimate D2E/DX2                !
 ! D151  D(49,48,51,52)        147.6821         estimate D2E/DX2                !
 ! D152  D(49,48,51,53)        -32.3179         estimate D2E/DX2                !
 ! D153  D(50,48,51,52)         32.3179         estimate D2E/DX2                !
 ! D154  D(50,48,51,53)       -147.6821         estimate D2E/DX2                !
 ! D155  D(48,51,52,54)        180.0            estimate D2E/DX2                !
 ! D156  D(48,51,52,57)          0.0            estimate D2E/DX2                !
 ! D157  D(53,51,52,54)          0.0            estimate D2E/DX2                !
 ! D158  D(53,51,52,57)        180.0            estimate D2E/DX2                !
 ! D159  D(48,51,53,55)        180.0            estimate D2E/DX2                !
 ! D160  D(48,51,53,58)          0.0            estimate D2E/DX2                !
 ! D161  D(52,51,53,55)          0.0            estimate D2E/DX2                !
 ! D162  D(52,51,53,58)        180.0            estimate D2E/DX2                !
 ! D163  D(51,52,54,56)          0.0            estimate D2E/DX2                !
 ! D164  D(51,52,54,59)        180.0            estimate D2E/DX2                !
 ! D165  D(57,52,54,56)        180.0            estimate D2E/DX2                !
 ! D166  D(57,52,54,59)          0.0            estimate D2E/DX2                !
 ! D167  D(51,53,55,56)          0.0            estimate D2E/DX2                !
 ! D168  D(51,53,55,60)        180.0            estimate D2E/DX2                !
 ! D169  D(58,53,55,56)        180.0            estimate D2E/DX2                !
 ! D170  D(58,53,55,60)          0.0            estimate D2E/DX2                !
 ! D171  D(52,54,56,55)          0.0            estimate D2E/DX2                !
 ! D172  D(52,54,56,61)        180.0            estimate D2E/DX2                !
 ! D173  D(59,54,56,55)        180.0            estimate D2E/DX2                !
 ! D174  D(59,54,56,61)          0.0            estimate D2E/DX2                !
 ! D175  D(53,55,56,54)          0.0            estimate D2E/DX2                !
 ! D176  D(53,55,56,61)        180.0            estimate D2E/DX2                !
 ! D177  D(60,55,56,54)        180.0            estimate D2E/DX2                !
 ! D178  D(60,55,56,61)          0.0            estimate D2E/DX2                !
 --------------------------------------------------------------------------------
 Trust Radius=3.00D-01 FncErr=1.00D-07 GrdErr=1.00D-06 EigMax=2.50D+02 EigMin=1.00D-04
 Number of steps in this run=    366 maximum allowed number of steps=    366.
 GradGradGradGradGradGradGradGradGradGradGradGradGradGradGradGradGradGrad

 Leave Link  103 at Wed Apr 21 17:01:21 2021, MaxMem=  6174015488 cpu:               0.3 elap:               0.0
 (Enter /s/ls4/groups/g0130/bin/g16/l202.exe)
 Stoichiometry    C22H34N3O2(1+)
 Framework group  C1[X(C22H34N3O2)]
 Deg. of freedom   177
 Full point group                 C1      NOp   1
 Largest Abelian subgroup         C1      NOp   1
 Largest concise Abelian subgroup C1      NOp   1
                         Standard orientation:                         
 ---------------------------------------------------------------------
 Center     Atomic      Atomic             Coordinates (Angstroms)
 Number     Number       Type             X           Y           Z
 ---------------------------------------------------------------------
      1          7           0        2.445822   -2.655301   -0.404635
      2          6           0        1.160772   -2.812860   -1.476106
      3          6           0        1.713980   -3.055123    0.841691
      4          1           0        1.587774   -2.661921   -2.480302
      5          1           0        0.699039   -3.811637   -1.459096
      6          6           0        0.108313   -1.737478   -1.176461
      7          1           0        2.551310   -3.082443    1.557049
      8          1           0        1.247238   -4.051309    0.838748
      9          6           0        0.689735   -1.991357    1.270070
     10          6           0        0.806498   -0.379225   -1.162160
     11          6           0       -0.468850   -2.003297    0.240533
     12          6           0        1.392660   -0.634120    1.221086
     13          1           0        1.244336   -0.139417   -2.141966
     14          1           0        0.120327    0.429699   -0.879696
     15          7           0        1.936449   -0.383565   -0.161845
     16          1           0       -0.880097   -3.024464    0.243234
     17          1           0        2.243428   -0.602612    1.916925
     18          1           0        0.730655    0.206425    1.467189
     19          7           0       -1.533283   -1.106126    0.593959
     20          1           0       -1.276018   -0.226807    1.022103
     21          6           0       -0.978563   -1.721451   -2.237851
     22          1           0       -1.748484   -0.974039   -1.999106
     23          1           0       -0.557075   -1.486249   -3.226821
     24          1           0       -1.463628   -2.706563   -2.303408
     25          6           0        0.196064   -2.256833    2.683259
     26          1           0       -0.514402   -1.487759    3.017234
     27          1           0       -0.314985   -3.230198    2.725565
     28          1           0        1.036605   -2.280165    3.392972
     29          6           0        3.606684   -2.301335   -0.496628
     30          1           0        4.112531   -2.265193    0.344652
     31          1           0        3.995126   -2.066144   -1.409167
     32          6           0        2.660233    0.934333   -0.202749
     33          8           0        3.816196    0.972460   -0.489705
     34          8           0        1.818723    1.861971    0.106110
     35          6           0        2.190506    3.307173    0.150329
     36          6           0        3.262929    3.493435    1.207469
     37          1           0        2.921202    3.106683    2.178376
     38          1           0        4.199642    2.994468    0.927594
     39          1           0        3.465108    4.568106    1.318519
     40          6           0        2.637791    3.727113   -1.237514
     41          1           0        3.571725    3.230612   -1.530779
     42          1           0        1.858304    3.502521   -1.979795
     43          1           0        2.809948    4.812643   -1.238940
     44          6           0        0.884204    3.964799    0.546798
     45          1           0        0.104242    3.761257   -0.200563
     46          1           0        0.544826    3.596260    1.525214
     47          1           0        1.028878    5.051727    0.613850
     48          6           0       -2.939862   -1.452080    0.343457
     49          1           0       -3.001643   -2.106696   -0.537896
     50          1           0       -3.323947   -2.044735    1.186285
     51          6           0       -3.848830   -0.227492    0.129534
     52          6           0       -4.496584    0.389581    1.213032
     53          6           0       -4.053981    0.304494   -1.154691
     54          6           0       -5.319349    1.497965    1.019729
     55          6           0       -4.876627    1.412855   -1.348630
     56          6           0       -5.513308    2.014941   -0.262195
     57          1           0       -4.352592   -0.004461    2.214262
     58          1           0       -3.563575   -0.156144   -2.006618
     59          1           0       -5.809846    1.958537    1.872544
     60          1           0       -5.020384    1.806768   -2.350715
     61          1           0       -6.154308    2.878515   -0.413052
 ---------------------------------------------------------------------
 Rotational constants (GHZ):           0.2282605           0.1422571           0.1055468
 Leave Link  202 at Wed Apr 21 17:01:21 2021, MaxMem=  6174015488 cpu:               0.2 elap:               0.0
 (Enter /s/ls4/groups/g0130/bin/g16/l301.exe)
 Standard basis: def2SVP (5D, 7F)
 Ernie: Thresh=  0.10000D-02 Tol=  0.10000D-05 Strict=F.
 There are   575 symmetry adapted cartesian basis functions of A   symmetry.
 There are   548 symmetry adapted basis functions of A   symmetry.
   548 basis functions,   913 primitive gaussians,   575 cartesian basis functions
   101 alpha electrons      101 beta electrons
       nuclear repulsion energy      2734.1922188823 Hartrees.
 IExCor= 1009 DFT=T Ex+Corr=PBE1PBE ExCW=0 ScaHFX=  0.250000
 ScaDFX=  0.750000  0.750000  1.000000  1.000000 ScalE2=  1.000000  1.000000
 IRadAn=      5 IRanWt=     -1 IRanGd=            0 ICorTp=0 IEmpDi=141
 NAtoms=   61 NActive=   61 NUniq=   61 SFac= 1.00D+00 NAtFMM=   60 NAOKFM=T Big=T
 Integral buffers will be    131072 words long.
 Raffenetti 2 integral format.
 Two-electron integral symmetry is turned on.
 R6Disp:  Grimme-D3(BJ) Dispersion energy=       -0.0739542022 Hartrees.
 Nuclear repulsion after empirical dispersion term =     2734.1182646801 Hartrees.
 ------------------------------------------------------------------------------
 Polarizable Continuum Model (PCM)
 =================================
 Model                : PCM.
 Atomic radii         : SMD-Coulomb.
 Polarization charges : Total charges.
 Charge compensation  : None.
 Solution method      : On-the-fly selection.
 Cavity type          : VdW (van der Waals Surface) (Alpha=1.000).
 Cavity algorithm     : GePol (No added spheres)
                        Default sphere list used, NSphG=   61.
                        Lebedev-Laikov grids with approx.  5.0 points / Ang**2.
                        Smoothing algorithm: York/Karplus (Gamma=1.0000).
                        Polarization charges: spherical gaussians, with
                                              point-specific exponents (IZeta= 3).
                        Self-potential: point-specific (ISelfS= 7).
                        Self-field    : sphere-specific E.n sum rule (ISelfD= 2).
 1st derivatives      : Analytical E(r).r(x)/FMM algorithm (CHGder, D1EAlg=3).
                        Cavity 1st derivative terms included.
 Solvent              : Water, Eps=  78.355300 Eps(inf)=   1.777849
 ------------------------------------------------------------------------------
 GePol: Number of generator spheres                  =      61
 GePol: Total number of spheres                      =      61
 GePol: Number of exposed spheres                    =      61 (100.00%)
 GePol: Number of points                             =    3881
 GePol: Average weight of points                     =       0.11
 GePol: Minimum weight of points                     =   0.92D-10
 GePol: Maximum weight of points                     =    0.21991
 GePol: Number of points with low weight             =     281
 GePol: Fraction of low-weight points (<1% of avg)   =       7.24%
 GePol: Cavity surface area                          =    421.804 Ang**2
 GePol: Cavity volume                                =    400.449 Ang**3
 ------------------------------------------------------------------------------
 Atomic radii for non-electrostatic terms: SMD-CDS.
 ------------------------------------------------------------------------------
 PCM non-electrostatic energy =         0.0164600308 Hartrees.
 Nuclear repulsion after PCM non-electrostatic terms =     2734.1347247109 Hartrees.
 Leave Link  301 at Wed Apr 21 17:01:21 2021, MaxMem=  6174015488 cpu:               2.1 elap:               0.1
 (Enter /s/ls4/groups/g0130/bin/g16/l302.exe)
 NPDir=0 NMtPBC=     1 NCelOv=     1 NCel=       1 NClECP=     1 NCelD=      1
         NCelK=      1 NCelE2=     1 NClLst=     1 CellRange=     0.0.
 One-electron integrals computed using PRISM.
 One-electron integral symmetry used in STVInt
   1 Symmetry operations used in ECPInt.
 ECPInt:  NShTT=   34980 NPrTT=  122718 LenC2=   30814 LenP2D=   73774.
 LDataN:  DoStor=T MaxTD1= 4 Len=   56
 NBasis=   548 RedAO= T EigKep=  2.95D-04  NBF=   548
 NBsUse=   548 1.00D-06 EigRej= -1.00D+00 NBFU=   548
 Precomputing XC quadrature grid using
 IXCGrd= 4 IRadAn=           5 IRanWt=          -1 IRanGd=           0 AccXCQ= 0.00D+00.
 Generated NRdTot=       0 NPtTot=           0 NUsed=           0 NTot=          32
 NSgBfM=   570   570   570   570   570 MxSgAt=    61 MxSgA2=    61.
 Leave Link  302 at Wed Apr 21 17:01:22 2021, MaxMem=  6174015488 cpu:              19.3 elap:               1.0
 (Enter /s/ls4/groups/g0130/bin/g16/l303.exe)
 DipDrv:  MaxL=1.
 Leave Link  303 at Wed Apr 21 17:01:22 2021, MaxMem=  6174015488 cpu:               1.9 elap:               0.1
 (Enter /s/ls4/groups/g0130/bin/g16/l401.exe)
 ExpMin= 1.22D-01 ExpMax= 2.27D+03 ExpMxC= 3.41D+02 IAcc=3 IRadAn=         5 AccDes= 0.00D+00
 Harris functional with IExCor= 1009 and IRadAn=       5 diagonalized for initial guess.
 HarFok:  IExCor= 1009 AccDes= 0.00D+00 IRadAn=         5 IDoV= 1 UseB2=F ITyADJ=14
 ICtDFT=  3500011 ScaDFX=  1.000000  1.000000  1.000000  1.000000
 FoFCou: FMM=F IPFlag=           0 FMFlag=      100000 FMFlg1=        2001
         NFxFlg=           0 DoJE=T BraDBF=F KetDBF=T FulRan=T
         wScrn=  0.000000 ICntrl=       500 IOpCl=  0 I1Cent=   200000004 NGrid=           0
         NMat0=    1 NMatS0=      1 NMatT0=    0 NMatD0=    1 NMtDS0=    0 NMtDT0=    0
 Petite list used in FoFCou.
 Harris En= -1171.36184859350    
 JPrj=0 DoOrth=F DoCkMO=F.
 Leave Link  401 at Wed Apr 21 17:01:25 2021, MaxMem=  6174015488 cpu:              60.4 elap:               3.0
 (Enter /s/ls4/groups/g0130/bin/g16/l502.exe)
 Integral symmetry usage will be decided dynamically.
 Closed shell SCF:
 Using DIIS extrapolation, IDIIS=  1040.
 NGot=  6174015488 LenX=  6173336413 LenY=  6173005213
 Requested convergence on RMS density matrix=1.00D-08 within 128 cycles.
 Requested convergence on MAX density matrix=1.00D-06.
 Requested convergence on             energy=1.00D-06.
 No special actions if energy rises.
 Fock matrices will be formed incrementally for  20 cycles.

 Cycle   1  Pass 1  IDiag  1:
 FoFJK:  IHMeth= 1 ICntrl=       0 DoSepK=F KAlg= 0 I1Cent=           0 FoldK=F
 IRaf= 990000000 NMat=       1 IRICut=       1 DoRegI=T DoRafI=F ISym2E= 0 IDoP0=0 IntGTp=1.
 FoFCou: FMM=T IPFlag=           0 FMFlag=      100000 FMFlg1=        2001
         NFxFlg=           0 DoJE=F BraDBF=F KetDBF=F FulRan=T
         wScrn=  0.000000 ICntrl=         0 IOpCl=  0 I1Cent=           0 NGrid=           0
         NMat0=    1 NMatS0=      1 NMatT0=    0 NMatD0=    1 NMtDS0=    0 NMtDT0=    0
 Symmetry not used in FoFCou.
 FMM levels:  10  Number of levels for PrismC:   9
 Inv3:  Mode=1 IEnd=    45186483.
 Iteration    1 A*A^-1 deviation from unit magnitude is 3.33D-15 for    369.
 Iteration    1 A*A^-1 deviation from orthogonality  is 2.16D-15 for   1717   1321.
 Iteration    1 A^-1*A deviation from unit magnitude is 2.89D-15 for    369.
 Iteration    1 A^-1*A deviation from orthogonality  is 5.63D-15 for   2400   2398.
 E= -1170.59590464578    
 DIIS: error= 2.73D-02 at cycle   1 NSaved=   1.
 NSaved= 1 IEnMin= 1 EnMin= -1170.59590464578     IErMin= 1 ErrMin= 2.73D-02
 ErrMax= 2.73D-02  0.00D+00 EMaxC= 1.00D-01 BMatC= 5.49D-01 BMatP= 5.49D-01
 IDIUse=3 WtCom= 7.27D-01 WtEn= 2.73D-01
 Coeff-Com:  0.100D+01
 Coeff-En:   0.100D+01
 Coeff:      0.100D+01
 Gap=     0.268 Goal=   None    Shift=    0.000
 GapD=    0.268 DampG=1.000 DampE=0.500 DampFc=0.5000 IDamp=-1.
 Damping current iteration by 5.00D-01
 RMSDP=3.13D-03 MaxDP=1.59D-01              OVMax= 1.52D-01

 Cycle   2  Pass 1  IDiag  1:
 RMSU=  1.53D-03    CP:  9.77D-01
 E= -1170.84820931086     Delta-E=       -0.252304665076 Rises=F Damp=T
 DIIS: error= 7.60D-03 at cycle   2 NSaved=   2.
 NSaved= 2 IEnMin= 2 EnMin= -1170.84820931086     IErMin= 2 ErrMin= 7.60D-03
 ErrMax= 7.60D-03  0.00D+00 EMaxC= 1.00D-01 BMatC= 3.93D-02 BMatP= 5.49D-01
 IDIUse=3 WtCom= 9.24D-01 WtEn= 7.60D-02
 Coeff-Com:  0.721D-01 0.928D+00
 Coeff-En:   0.865D-01 0.914D+00
 Coeff:      0.732D-01 0.927D+00
 Gap=     0.172 Goal=   None    Shift=    0.000
 RMSDP=8.90D-04 MaxDP=5.33D-02 DE=-2.52D-01 OVMax= 1.01D-01

 Cycle   3  Pass 1  IDiag  1:
 RMSU=  8.68D-04    CP:  9.67D-01  1.09D+00
 E= -1171.12889136640     Delta-E=       -0.280682055544 Rises=F Damp=F
 DIIS: error= 1.00D-02 at cycle   3 NSaved=   3.
 NSaved= 3 IEnMin= 3 EnMin= -1171.12889136640     IErMin= 2 ErrMin= 7.60D-03
 ErrMax= 1.00D-02  0.00D+00 EMaxC= 1.00D-01 BMatC= 3.52D-02 BMatP= 3.93D-02
 IDIUse=3 WtCom= 9.00D-01 WtEn= 1.00D-01
 Coeff-Com: -0.105D-01 0.486D+00 0.524D+00
 Coeff-En:   0.000D+00 0.000D+00 0.100D+01
 Coeff:     -0.942D-02 0.438D+00 0.572D+00
 Gap=     0.166 Goal=   None    Shift=    0.000
 RMSDP=4.21D-04 MaxDP=4.15D-02 DE=-2.81D-01 OVMax= 4.92D-02

 Cycle   4  Pass 1  IDiag  1:
 RMSU=  3.55D-04    CP:  9.69D-01  1.12D+00  7.46D-01
 E= -1171.15137428178     Delta-E=       -0.022482915377 Rises=F Damp=F
 DIIS: error= 4.02D-03 at cycle   4 NSaved=   4.
 NSaved= 4 IEnMin= 4 EnMin= -1171.15137428178     IErMin= 4 ErrMin= 4.02D-03
 ErrMax= 4.02D-03  0.00D+00 EMaxC= 1.00D-01 BMatC= 7.95D-03 BMatP= 3.52D-02
 IDIUse=3 WtCom= 9.60D-01 WtEn= 4.02D-02
 Coeff-Com: -0.816D-02 0.823D-01 0.336D+00 0.590D+00
 Coeff-En:   0.000D+00 0.000D+00 0.205D+00 0.795D+00
 Coeff:     -0.783D-02 0.790D-01 0.330D+00 0.598D+00
 Gap=     0.157 Goal=   None    Shift=    0.000
 RMSDP=1.65D-04 MaxDP=1.40D-02 DE=-2.25D-02 OVMax= 1.82D-02

 Cycle   5  Pass 1  IDiag  1:
 RMSU=  8.97D-05    CP:  9.68D-01  1.11D+00  7.89D-01  6.28D-01
 E= -1171.15755184272     Delta-E=       -0.006177560940 Rises=F Damp=F
 DIIS: error= 9.85D-04 at cycle   5 NSaved=   5.
 NSaved= 5 IEnMin= 5 EnMin= -1171.15755184272     IErMin= 5 ErrMin= 9.85D-04
 ErrMax= 9.85D-04  0.00D+00 EMaxC= 1.00D-01 BMatC= 3.25D-04 BMatP= 7.95D-03
 IDIUse=3 WtCom= 9.90D-01 WtEn= 9.85D-03
 Coeff-Com: -0.320D-02 0.136D-01 0.136D+00 0.302D+00 0.552D+00
 Coeff-En:   0.000D+00 0.000D+00 0.000D+00 0.000D+00 0.100D+01
 Coeff:     -0.317D-02 0.135D-01 0.134D+00 0.299D+00 0.556D+00
 Gap=     0.160 Goal=   None    Shift=    0.000
 RMSDP=4.39D-05 MaxDP=3.16D-03 DE=-6.18D-03 OVMax= 3.25D-03

 Cycle   6  Pass 1  IDiag  1:
 RMSU=  2.19D-05    CP:  9.68D-01  1.11D+00  8.02D-01  6.66D-01  6.23D-01
 E= -1171.15781635787     Delta-E=       -0.000264515153 Rises=F Damp=F
 DIIS: error= 2.25D-04 at cycle   6 NSaved=   6.
 NSaved= 6 IEnMin= 6 EnMin= -1171.15781635787     IErMin= 6 ErrMin= 2.25D-04
 ErrMax= 2.25D-04  0.00D+00 EMaxC= 1.00D-01 BMatC= 2.05D-05 BMatP= 3.25D-04
 IDIUse=3 WtCom= 9.98D-01 WtEn= 2.25D-03
 Coeff-Com: -0.823D-03-0.666D-03 0.345D-01 0.881D-01 0.264D+00 0.614D+00
 Coeff-En:   0.000D+00 0.000D+00 0.000D+00 0.000D+00 0.000D+00 0.100D+01
 Coeff:     -0.821D-03-0.665D-03 0.345D-01 0.879D-01 0.264D+00 0.615D+00
 Gap=     0.160 Goal=   None    Shift=    0.000
 RMSDP=9.63D-06 MaxDP=6.94D-04 DE=-2.65D-04 OVMax= 5.68D-04

 Cycle   7  Pass 1  IDiag  1:
 RMSU=  6.50D-06    CP:  9.68D-01  1.11D+00  8.02D-01  6.64D-01  6.63D-01
                    CP:  7.28D-01
 E= -1171.15783321943     Delta-E=       -0.000016861559 Rises=F Damp=F
 DIIS: error= 3.19D-05 at cycle   7 NSaved=   7.
 NSaved= 7 IEnMin= 7 EnMin= -1171.15783321943     IErMin= 7 ErrMin= 3.19D-05
 ErrMax= 3.19D-05  0.00D+00 EMaxC= 1.00D-01 BMatC= 8.93D-07 BMatP= 2.05D-05
 IDIUse=1 WtCom= 1.00D+00 WtEn= 0.00D+00
 Coeff-Com: -0.202D-03-0.883D-03 0.872D-02 0.236D-01 0.900D-01 0.269D+00
 Coeff-Com:  0.610D+00
 Coeff:     -0.202D-03-0.883D-03 0.872D-02 0.236D-01 0.900D-01 0.269D+00
 Coeff:      0.610D+00
 Gap=     0.160 Goal=   None    Shift=    0.000
 RMSDP=2.21D-06 MaxDP=1.30D-04 DE=-1.69D-05 OVMax= 1.68D-04

 Cycle   8  Pass 1  IDiag  1:
 RMSU=  1.87D-06    CP:  9.68D-01  1.11D+00  8.02D-01  6.65D-01  6.65D-01
                    CP:  7.51D-01  8.61D-01
 E= -1171.15783401010     Delta-E=       -0.000000790667 Rises=F Damp=F
 DIIS: error= 1.38D-05 at cycle   8 NSaved=   8.
 NSaved= 8 IEnMin= 8 EnMin= -1171.15783401010     IErMin= 8 ErrMin= 1.38D-05
 ErrMax= 1.38D-05  0.00D+00 EMaxC= 1.00D-01 BMatC= 6.75D-08 BMatP= 8.93D-07
 IDIUse=1 WtCom= 1.00D+00 WtEn= 0.00D+00
 Coeff-Com:  0.692D-05-0.264D-03 0.973D-04 0.153D-03 0.961D-02 0.422D-01
 Coeff-Com:  0.233D+00 0.715D+00
 Coeff:      0.692D-05-0.264D-03 0.973D-04 0.153D-03 0.961D-02 0.422D-01
 Coeff:      0.233D+00 0.715D+00
 Gap=     0.160 Goal=   None    Shift=    0.000
 RMSDP=7.35D-07 MaxDP=4.13D-05 DE=-7.91D-07 OVMax= 1.13D-04

 Cycle   9  Pass 1  IDiag  1:
 RMSU=  5.81D-07    CP:  9.68D-01  1.11D+00  8.02D-01  6.65D-01  6.65D-01
                    CP:  7.61D-01  9.08D-01  9.13D-01
 E= -1171.15783406441     Delta-E=       -0.000000054311 Rises=F Damp=F
 DIIS: error= 3.30D-06 at cycle   9 NSaved=   9.
 NSaved= 9 IEnMin= 9 EnMin= -1171.15783406441     IErMin= 9 ErrMin= 3.30D-06
 ErrMax= 3.30D-06  0.00D+00 EMaxC= 1.00D-01 BMatC= 1.42D-08 BMatP= 6.75D-08
 IDIUse=1 WtCom= 1.00D+00 WtEn= 0.00D+00
 Coeff-Com:  0.271D-04-0.914D-04-0.690D-03-0.206D-02-0.243D-02-0.148D-02
 Coeff-Com:  0.680D-01 0.381D+00 0.558D+00
 Coeff:      0.271D-04-0.914D-04-0.690D-03-0.206D-02-0.243D-02-0.148D-02
 Coeff:      0.680D-01 0.381D+00 0.558D+00
 Gap=     0.160 Goal=   None    Shift=    0.000
 RMSDP=3.28D-07 MaxDP=1.80D-05 DE=-5.43D-08 OVMax= 3.44D-05

 Cycle  10  Pass 1  IDiag  1:
 RMSU=  2.15D-07    CP:  9.68D-01  1.11D+00  8.02D-01  6.65D-01  6.67D-01
                    CP:  7.62D-01  9.25D-01  9.48D-01  7.52D-01
 E= -1171.15783407782     Delta-E=       -0.000000013409 Rises=F Damp=F
 DIIS: error= 1.83D-06 at cycle  10 NSaved=  10.
 NSaved=10 IEnMin=10 EnMin= -1171.15783407782     IErMin=10 ErrMin= 1.83D-06
 ErrMax= 1.83D-06  0.00D+00 EMaxC= 1.00D-01 BMatC= 1.11D-09 BMatP= 1.42D-08
 IDIUse=1 WtCom= 1.00D+00 WtEn= 0.00D+00
 Coeff-Com:  0.138D-04-0.117D-04-0.293D-03-0.977D-03-0.202D-02-0.544D-02
 Coeff-Com:  0.571D-02 0.976D-01 0.252D+00 0.653D+00
 Coeff:      0.138D-04-0.117D-04-0.293D-03-0.977D-03-0.202D-02-0.544D-02
 Coeff:      0.571D-02 0.976D-01 0.252D+00 0.653D+00
 Gap=     0.160 Goal=   None    Shift=    0.000
 RMSDP=1.10D-07 MaxDP=7.13D-06 DE=-1.34D-08 OVMax= 2.35D-05

 Cycle  11  Pass 1  IDiag  1:
 RMSU=  7.25D-08    CP:  9.68D-01  1.11D+00  8.02D-01  6.65D-01  6.67D-01
                    CP:  7.63D-01  9.31D-01  9.73D-01  8.35D-01  9.11D-01
 E= -1171.15783407888     Delta-E=       -0.000000001063 Rises=F Damp=F
 DIIS: error= 6.97D-07 at cycle  11 NSaved=  11.
 NSaved=11 IEnMin=11 EnMin= -1171.15783407888     IErMin=11 ErrMin= 6.97D-07
 ErrMax= 6.97D-07  0.00D+00 EMaxC= 1.00D-01 BMatC= 2.33D-10 BMatP= 1.11D-09
 IDIUse=1 WtCom= 1.00D+00 WtEn= 0.00D+00
 Coeff-Com:  0.666D-05 0.356D-06-0.115D-03-0.403D-03-0.110D-02-0.364D-02
 Coeff-Com: -0.663D-02 0.766D-02 0.731D-01 0.376D+00 0.556D+00
 Coeff:      0.666D-05 0.356D-06-0.115D-03-0.403D-03-0.110D-02-0.364D-02
 Coeff:     -0.663D-02 0.766D-02 0.731D-01 0.376D+00 0.556D+00
 Gap=     0.160 Goal=   None    Shift=    0.000
 RMSDP=3.70D-08 MaxDP=2.74D-06 DE=-1.06D-09 OVMax= 5.77D-06

 Cycle  12  Pass 1  IDiag  1:
 RMSU=  2.46D-08    CP:  9.68D-01  1.11D+00  8.02D-01  6.65D-01  6.67D-01
                    CP:  7.63D-01  9.33D-01  9.78D-01  8.57D-01  9.79D-01
                    CP:  9.22D-01
 E= -1171.15783407907     Delta-E=       -0.000000000189 Rises=F Damp=F
 DIIS: error= 2.12D-07 at cycle  12 NSaved=  12.
 NSaved=12 IEnMin=12 EnMin= -1171.15783407907     IErMin=12 ErrMin= 2.12D-07
 ErrMax= 2.12D-07  0.00D+00 EMaxC= 1.00D-01 BMatC= 1.67D-11 BMatP= 2.33D-10
 IDIUse=1 WtCom= 1.00D+00 WtEn= 0.00D+00
 Coeff-Com:  0.116D-05 0.771D-06 0.113D-04 0.596D-05-0.549D-04-0.439D-03
 Coeff-Com: -0.320D-02-0.113D-01-0.102D-01 0.645D-01 0.231D+00 0.730D+00
 Coeff:      0.116D-05 0.771D-06 0.113D-04 0.596D-05-0.549D-04-0.439D-03
 Coeff:     -0.320D-02-0.113D-01-0.102D-01 0.645D-01 0.231D+00 0.730D+00
 Gap=     0.160 Goal=   None    Shift=    0.000
 RMSDP=1.80D-08 MaxDP=1.29D-06 DE=-1.89D-10 OVMax= 4.87D-06

 Cycle  13  Pass 1  IDiag  1:
 RMSU=  8.42D-09    CP:  9.68D-01  1.11D+00  8.02D-01  6.65D-01  6.67D-01
                    CP:  7.63D-01  9.33D-01  9.80D-01  8.65D-01  1.03D+00
                    CP:  1.02D+00  9.13D-01
 E= -1171.15783407911     Delta-E=       -0.000000000035 Rises=F Damp=F
 DIIS: error= 9.66D-08 at cycle  13 NSaved=  13.
 NSaved=13 IEnMin=13 EnMin= -1171.15783407911     IErMin=13 ErrMin= 9.66D-08
 ErrMax= 9.66D-08  0.00D+00 EMaxC= 1.00D-01 BMatC= 4.24D-12 BMatP= 1.67D-11
 IDIUse=1 WtCom= 1.00D+00 WtEn= 0.00D+00
 Coeff-Com:  0.237D-07 0.570D-07 0.181D-04 0.465D-04 0.807D-04 0.139D-03
 Coeff-Com: -0.114D-02-0.749D-02-0.148D-01-0.101D-01 0.442D-01 0.396D+00
 Coeff-Com:  0.593D+00
 Coeff:      0.237D-07 0.570D-07 0.181D-04 0.465D-04 0.807D-04 0.139D-03
 Coeff:     -0.114D-02-0.749D-02-0.148D-01-0.101D-01 0.442D-01 0.396D+00
 Coeff:      0.593D+00
 Gap=     0.160 Goal=   None    Shift=    0.000
 RMSDP=5.64D-09 MaxDP=3.91D-07 DE=-3.55D-11 OVMax= 1.18D-06

 Error on total polarization charges =  0.06147
 SCF Done:  E(RPBE1PBE) =  -1171.15783408     A.U. after   13 cycles
            NFock= 13  Conv=0.56D-08     -V/T= 2.0106
 KE= 1.158845722287D+03 PE=-8.161449903062D+03 EE= 3.097311621985D+03
 SMD-CDS (non-electrostatic) energy       (kcal/mol) =      10.33
 (included in total energy above)
 Leave Link  502 at Wed Apr 21 17:03:44 2021, MaxMem=  6174015488 cpu:            2743.0 elap:             139.1
 (Enter /s/ls4/groups/g0130/bin/g16/l601.exe)
 Copying SCF densities to generalized density rwf, IOpCl= 0 IROHF=0.

 **********************************************************************

            Population analysis using the SCF density.

 **********************************************************************

 Orbital symmetries:
       Occupied  (A) (A) (A) (A) (A) (A) (A) (A) (A) (A) (A) (A)
                 (A) (A) (A) (A) (A) (A) (A) (A) (A) (A) (A) (A)
                 (A) (A) (A) (A) (A) (A) (A) (A) (A) (A) (A) (A)
                 (A) (A) (A) (A) (A) (A) (A) (A) (A) (A) (A) (A)
                 (A) (A) (A) (A) (A) (A) (A) (A) (A) (A) (A) (A)
                 (A) (A) (A) (A) (A) (A) (A) (A) (A) (A) (A) (A)
                 (A) (A) (A) (A) (A) (A) (A) (A) (A) (A) (A) (A)
                 (A) (A) (A) (A) (A) (A) (A) (A) (A) (A) (A) (A)
                 (A) (A) (A) (A) (A)
       Virtual   (A) (A) (A) (A) (A) (A) (A) (A) (A) (A) (A) (A)
                 (A) (A) (A) (A) (A) (A) (A) (A) (A) (A) (A) (A)
                 (A) (A) (A) (A) (A) (A) (A) (A) (A) (A) (A) (A)
                 (A) (A) (A) (A) (A) (A) (A) (A) (A) (A) (A) (A)
                 (A) (A) (A) (A) (A) (A) (A) (A) (A) (A) (A) (A)
                 (A) (A) (A) (A) (A) (A) (A) (A) (A) (A) (A) (A)
                 (A) (A) (A) (A) (A) (A) (A) (A) (A) (A) (A) (A)
                 (A) (A) (A) (A) (A) (A) (A) (A) (A) (A) (A) (A)
                 (A) (A) (A) (A) (A) (A) (A) (A) (A) (A) (A) (A)
                 (A) (A) (A) (A) (A) (A) (A) (A) (A) (A) (A) (A)
                 (A) (A) (A) (A) (A) (A) (A) (A) (A) (A) (A) (A)
                 (A) (A) (A) (A) (A) (A) (A) (A) (A) (A) (A) (A)
                 (A) (A) (A) (A) (A) (A) (A) (A) (A) (A) (A) (A)
                 (A) (A) (A) (A) (A) (A) (A) (A) (A) (A) (A) (A)
                 (A) (A) (A) (A) (A) (A) (A) (A) (A) (A) (A) (A)
                 (A) (A) (A) (A) (A) (A) (A) (A) (A) (A) (A) (A)
                 (A) (A) (A) (A) (A) (A) (A) (A) (A) (A) (A) (A)
                 (A) (A) (A) (A) (A) (A) (A) (A) (A) (A) (A) (A)
                 (A) (A) (A) (A) (A) (A) (A) (A) (A) (A) (A) (A)
                 (A) (A) (A) (A) (A) (A) (A) (A) (A) (A) (A) (A)
                 (A) (A) (A) (A) (A) (A) (A) (A) (A) (A) (A) (A)
                 (A) (A) (A) (A) (A) (A) (A) (A) (A) (A) (A) (A)
                 (A) (A) (A) (A) (A) (A) (A) (A) (A) (A) (A) (A)
                 (A) (A) (A) (A) (A) (A) (A) (A) (A) (A) (A) (A)
                 (A) (A) (A) (A) (A) (A) (A) (A) (A) (A) (A) (A)
                 (A) (A) (A) (A) (A) (A) (A) (A) (A) (A) (A) (A)
                 (A) (A) (A) (A) (A) (A) (A) (A) (A) (A) (A) (A)
                 (A) (A) (A) (A) (A) (A) (A) (A) (A) (A) (A) (A)
                 (A) (A) (A) (A) (A) (A) (A) (A) (A) (A) (A) (A)
                 (A) (A) (A) (A) (A) (A) (A) (A) (A) (A) (A) (A)
                 (A) (A) (A) (A) (A) (A) (A) (A) (A) (A) (A) (A)
                 (A) (A) (A) (A) (A) (A) (A) (A) (A) (A) (A) (A)
                 (A) (A) (A) (A) (A) (A) (A) (A) (A) (A) (A) (A)
                 (A) (A) (A) (A) (A) (A) (A) (A) (A) (A) (A) (A)
                 (A) (A) (A) (A) (A) (A) (A) (A) (A) (A) (A) (A)
                 (A) (A) (A) (A) (A) (A) (A) (A) (A) (A) (A) (A)
                 (A) (A) (A) (A) (A) (A) (A) (A) (A) (A) (A) (A)
                 (A) (A) (A)
 The electronic state is 1-A.
 Alpha  occ. eigenvalues --  -19.26770 -19.21449 -14.49899 -14.38871 -14.36779
 Alpha  occ. eigenvalues --  -10.39131 -10.30959 -10.30665 -10.29913 -10.28421
 Alpha  occ. eigenvalues --  -10.26398 -10.26008 -10.25998 -10.25986 -10.25703
 Alpha  occ. eigenvalues --  -10.25519 -10.24746 -10.23727 -10.23714 -10.23672
 Alpha  occ. eigenvalues --  -10.23656 -10.23646 -10.22485 -10.22435 -10.22294
 Alpha  occ. eigenvalues --  -10.22291 -10.22274  -1.14922  -1.06210  -1.03465
 Alpha  occ. eigenvalues --   -0.94362  -0.91322  -0.87551  -0.85169  -0.83567
 Alpha  occ. eigenvalues --   -0.83146  -0.78046  -0.76092  -0.75779  -0.71730
 Alpha  occ. eigenvalues --   -0.70888  -0.70867  -0.70650  -0.70403  -0.68583
 Alpha  occ. eigenvalues --   -0.66432  -0.63640  -0.63338  -0.61748  -0.59797
 Alpha  occ. eigenvalues --   -0.59703  -0.56382  -0.55465  -0.55150  -0.53613
 Alpha  occ. eigenvalues --   -0.53497  -0.52685  -0.51273  -0.50739  -0.50125
 Alpha  occ. eigenvalues --   -0.48971  -0.48574  -0.47324  -0.47007  -0.46471
 Alpha  occ. eigenvalues --   -0.45966  -0.45086  -0.44764  -0.44146  -0.43487
 Alpha  occ. eigenvalues --   -0.43088  -0.42697  -0.42552  -0.41527  -0.41417
 Alpha  occ. eigenvalues --   -0.40843  -0.40231  -0.39828  -0.39715  -0.39635
 Alpha  occ. eigenvalues --   -0.39074  -0.38642  -0.38214  -0.37611  -0.37427
 Alpha  occ. eigenvalues --   -0.37075  -0.36515  -0.36426  -0.36010  -0.35663
 Alpha  occ. eigenvalues --   -0.35101  -0.34772  -0.34281  -0.33180  -0.32672
 Alpha  occ. eigenvalues --   -0.32251  -0.29559  -0.26981  -0.26526  -0.23261
 Alpha  occ. eigenvalues --   -0.20984
 Alpha virt. eigenvalues --   -0.04981  -0.00929  -0.00613   0.01672   0.04073
 Alpha virt. eigenvalues --    0.05717   0.07276   0.07960   0.08436   0.08723
 Alpha virt. eigenvalues --    0.09319   0.09807   0.09967   0.10795   0.11500
 Alpha virt. eigenvalues --    0.11605   0.12033   0.12808   0.13304   0.13748
 Alpha virt. eigenvalues --    0.13885   0.14245   0.14634   0.14905   0.15245
 Alpha virt. eigenvalues --    0.15612   0.15886   0.16355   0.16883   0.17245
 Alpha virt. eigenvalues --    0.17295   0.17537   0.18108   0.18260   0.18519
 Alpha virt. eigenvalues --    0.18795   0.18931   0.19518   0.20122   0.20629
 Alpha virt. eigenvalues --    0.20948   0.21043   0.21375   0.21652   0.22093
 Alpha virt. eigenvalues --    0.23505   0.23859   0.24059   0.24521   0.24551
 Alpha virt. eigenvalues --    0.25610   0.25864   0.26278   0.26784   0.27675
 Alpha virt. eigenvalues --    0.28179   0.28388   0.28888   0.30368   0.30624
 Alpha virt. eigenvalues --    0.31818   0.32575   0.33296   0.33757   0.36116
 Alpha virt. eigenvalues --    0.37013   0.40253   0.40428   0.40863   0.41384
 Alpha virt. eigenvalues --    0.41940   0.42641   0.42978   0.43125   0.43758
 Alpha virt. eigenvalues --    0.44971   0.45203   0.46116   0.46446   0.46832
 Alpha virt. eigenvalues --    0.47217   0.47672   0.48171   0.48780   0.48998
 Alpha virt. eigenvalues --    0.50092   0.50326   0.51577   0.52111   0.52398
 Alpha virt. eigenvalues --    0.53047   0.53595   0.54024   0.55279   0.55941
 Alpha virt. eigenvalues --    0.56645   0.57033   0.57467   0.58598   0.58874
 Alpha virt. eigenvalues --    0.59579   0.60320   0.61126   0.61781   0.62255
 Alpha virt. eigenvalues --    0.62510   0.63073   0.63539   0.63954   0.64685
 Alpha virt. eigenvalues --    0.64887   0.65062   0.65356   0.65567   0.66227
 Alpha virt. eigenvalues --    0.66546   0.66945   0.67262   0.67306   0.67773
 Alpha virt. eigenvalues --    0.67875   0.68031   0.68218   0.68563   0.68758
 Alpha virt. eigenvalues --    0.68949   0.69361   0.69528   0.69908   0.70279
 Alpha virt. eigenvalues --    0.70743   0.70772   0.71155   0.71306   0.71607
 Alpha virt. eigenvalues --    0.71739   0.72114   0.72606   0.72722   0.72864
 Alpha virt. eigenvalues --    0.73216   0.73762   0.74168   0.74389   0.74665
 Alpha virt. eigenvalues --    0.74801   0.75064   0.75409   0.75713   0.76525
 Alpha virt. eigenvalues --    0.76670   0.76954   0.77255   0.77535   0.78460
 Alpha virt. eigenvalues --    0.79284   0.79881   0.82183   0.82629   0.82833
 Alpha virt. eigenvalues --    0.83733   0.85324   0.85723   0.86609   0.87400
 Alpha virt. eigenvalues --    0.89187   0.90431   0.90974   0.92153   0.93943
 Alpha virt. eigenvalues --    0.94354   0.96038   0.96430   0.97324   0.98355
 Alpha virt. eigenvalues --    0.99201   1.00289   1.03248   1.05635   1.06663
 Alpha virt. eigenvalues --    1.07043   1.07619   1.09336   1.10002   1.10134
 Alpha virt. eigenvalues --    1.11472   1.12373   1.13278   1.14565   1.15134
 Alpha virt. eigenvalues --    1.15802   1.16187   1.17091   1.18023   1.19909
 Alpha virt. eigenvalues --    1.20160   1.20796   1.21896   1.23698   1.24429
 Alpha virt. eigenvalues --    1.25105   1.25578   1.25825   1.26626   1.28132
 Alpha virt. eigenvalues --    1.28571   1.28992   1.30156   1.31137   1.31563
 Alpha virt. eigenvalues --    1.32087   1.32350   1.33629   1.34560   1.35799
 Alpha virt. eigenvalues --    1.38196   1.39694   1.41624   1.43370   1.46170
 Alpha virt. eigenvalues --    1.46657   1.47970   1.49957   1.50853   1.51643
 Alpha virt. eigenvalues --    1.52914   1.53793   1.54032   1.54784   1.54939
 Alpha virt. eigenvalues --    1.55027   1.55557   1.56985   1.57710   1.58750
 Alpha virt. eigenvalues --    1.58873   1.59407   1.60598   1.61845   1.62698
 Alpha virt. eigenvalues --    1.63212   1.63656   1.64617   1.66392   1.67574
 Alpha virt. eigenvalues --    1.67744   1.69358   1.70345   1.70845   1.71975
 Alpha virt. eigenvalues --    1.72343   1.72494   1.73528   1.74004   1.74488
 Alpha virt. eigenvalues --    1.74658   1.75549   1.75731   1.76108   1.76609
 Alpha virt. eigenvalues --    1.77216   1.77385   1.77921   1.78186   1.78697
 Alpha virt. eigenvalues --    1.79575   1.80019   1.80880   1.80910   1.81435
 Alpha virt. eigenvalues --    1.82096   1.82441   1.83341   1.83893   1.84588
 Alpha virt. eigenvalues --    1.84871   1.84980   1.85188   1.85542   1.85740
 Alpha virt. eigenvalues --    1.86140   1.87122   1.87242   1.87489   1.88218
 Alpha virt. eigenvalues --    1.88658   1.88834   1.89315   1.89616   1.90926
 Alpha virt. eigenvalues --    1.91481   1.91978   1.92717   1.93282   1.94183
 Alpha virt. eigenvalues --    1.94521   1.95303   1.95765   1.96580   1.96825
 Alpha virt. eigenvalues --    1.96890   1.97460   1.98366   1.98993   1.99452
 Alpha virt. eigenvalues --    2.00236   2.00965   2.01436   2.02012   2.02173
 Alpha virt. eigenvalues --    2.03632   2.04041   2.05351   2.06179   2.06968
 Alpha virt. eigenvalues --    2.07291   2.08103   2.10283   2.10694   2.11919
 Alpha virt. eigenvalues --    2.12367   2.12989   2.13711   2.14408   2.14827
 Alpha virt. eigenvalues --    2.15208   2.16027   2.16545   2.16847   2.17287
 Alpha virt. eigenvalues --    2.17478   2.18186   2.19220   2.20982   2.21452
 Alpha virt. eigenvalues --    2.21793   2.22772   2.23212   2.25493   2.26063
 Alpha virt. eigenvalues --    2.28313   2.28648   2.29928   2.31031   2.31911
 Alpha virt. eigenvalues --    2.33108   2.33404   2.35721   2.36435   2.36774
 Alpha virt. eigenvalues --    2.37332   2.38536   2.39383   2.39693   2.39981
 Alpha virt. eigenvalues --    2.40842   2.41111   2.41419   2.42894   2.45363
 Alpha virt. eigenvalues --    2.45771   2.46277   2.48287   2.49424   2.50792
 Alpha virt. eigenvalues --    2.51101   2.52597   2.53563   2.54519   2.54966
 Alpha virt. eigenvalues --    2.55725   2.56983   2.57345   2.58824   2.59649
 Alpha virt. eigenvalues --    2.60301   2.62029   2.62874   2.63217   2.63940
 Alpha virt. eigenvalues --    2.64317   2.65192   2.65582   2.66425   2.66622
 Alpha virt. eigenvalues --    2.67396   2.68513   2.69730   2.70355   2.71131
 Alpha virt. eigenvalues --    2.72187   2.72807   2.74513   2.75739   2.76568
 Alpha virt. eigenvalues --    2.77079   2.77719   2.80539   2.80905   2.82466
 Alpha virt. eigenvalues --    2.85341   2.86615   2.87969   2.89429   2.89795
 Alpha virt. eigenvalues --    2.90317   2.91008   2.91539   2.91906   2.92272
 Alpha virt. eigenvalues --    2.92982   2.94075   2.94497   2.95079   2.96167
 Alpha virt. eigenvalues --    2.97004   2.97623   2.98254   2.98671   2.99553
 Alpha virt. eigenvalues --    3.02181   3.03497   3.04590   3.05456   3.07022
 Alpha virt. eigenvalues --    3.08335   3.09190   3.10083   3.10431   3.10719
[...]
 -0.00000033,-0.00000020,0.00000026,0.00000014,0.00000005,0.,0.00000005
 ,-0.00000007,-0.00000005,-0.00000017,0.00000003,0.00000004,-0.00000034
 ,-0.00000014,-0.00000003,0.00000004,-0.00000004,-0.00000004,0.00000005
 ,0.00000003,0.00000004,-0.00000003,-0.00000001,0.00000015,0.00014335,0
 .00027665,0.00108472,-0.00033639,0.00017005,0.00007722,0.00000865,-0.0
 0002410,-0.00006409,-0.00149218,0.00548307,-0.00100449,-0.00217280,0.0
 0704357,0.02387175,-0.00085150,-0.00015251,-0.00046099,-0.07562061,0.0
 3277583,0.07419245,0.00066940,0.00397290,-0.00305971,0.00838574,-0.004
 77849,-0.01653278,-0.00015778,-0.00265549,-0.00000617,-0.00023294,-0.0
 0054194,0.00015264,0.07201975,0.00000018,-0.00000177,0.00000100,-0.000
 00099,0.00000357,-0.00000593,0.00000621,0.00001005,0.00001215,0.000003
 55,-0.00000147,-0.00000006,-0.00000027,0.00000028,0.00000055,-0.000005
 91,-0.00000243,0.00000568,0.00000655,-0.00000292,-0.00000128,-0.000000
 75,0.00000018,-0.00000038,0.00001668,-0.00001483,-0.00001868,0.0000004
 1,-0.00000397,-0.00000568,0.00000068,0.00006565,0.00008685,0.00000104,
 -0.00000307,0.00000856,0.00000142,0.00000156,-0.00000023,-0.00000074,-
 0.00000421,0.00000358,0.00000735,0.00000394,-0.00000212,-0.00000227,-0
 .00000389,-0.00000175,0.00000171,0.00000231,-0.00000100,0.00000002,-0.
 00000326,-0.00000068,0.00013172,-0.00007696,-0.00000824,-0.00002966,0.
 00001619,0.00000781,0.00000466,0.00000186,-0.00000364,0.00000282,-0.00
 000116,0.00000302,0.00000173,-0.00000084,-0.00000251,-0.00000028,0.000
 00058,-0.00000054,0.00000391,0.00000178,-0.00000224,-0.00000075,-0.000
 00056,-0.00000411,0.00000027,-0.00000109,0.00000060,0.00000146,-0.0000
 0067,0.00000303,-0.00000090,0.00000039,-0.00000038,-0.00000020,0.00000
 003,-0.00000020,-0.00000008,0.00000038,0.00000011,-0.00001405,-0.00000
 532,0.00000250,0.00000628,0.00000216,0.00000221,0.00000475,0.00000115,
 -0.00000476,-0.00000248,-0.00000093,0.00000146,0.00000048,0.00000010,-
 0.00000029,-0.00000004,-0.00000004,0.00000009,-0.00000016,-0.00000007,
 0.00000003,0.00000010,0.00000024,-0.00000007,0.00000033,0.00000024,-0.
 00000032,-0.00000013,0.00000002,0.,-0.00000002,-0.00000006,0.00000005,
 0.00000025,-0.00000002,-0.00000003,0.00000032,0.00000020,-0.00000003,-
 0.00000006,-0.00000006,0.,-0.00000003,-0.00000003,0.00000004,0.0000000
 8,0.00000004,-0.00000019,-0.00033900,0.00006666,-0.00081402,0.00010475
 ,-0.00011049,-0.00004949,0.00002335,-0.00003307,0.00003911,0.00602664,
 0.00365222,-0.00023038,0.00386442,-0.00035146,-0.01564527,-0.00013549,
 -0.00088627,0.00049930,0.03270802,-0.07012216,-0.07982290,0.00385701,0
 .00501517,0.00082572,-0.00157279,0.00617545,0.00820021,-0.00265200,-0.
 00249755,0.00059212,-0.00053980,-0.00074859,0.00003300,-0.03906514,0.0
 6241300,0.00000053,-0.00000167,0.00000019,-0.00000051,0.00000439,-0.00
 000814,0.00000282,0.00000648,0.00000680,0.00000370,-0.00000168,0.00000
 006,-0.00000047,0.00000034,0.00000068,0.00000722,-0.00000665,0.0000076
 7,0.00000391,-0.00000171,-0.00000080,-0.00000058,0.00000031,-0.0000002
 0,0.00000246,-0.00000902,-0.00001158,-0.00000020,-0.00000415,-0.000004
 69,-0.00002323,0.00005234,0.00000604,0.00000142,-0.00000328,0.00000480
 ,0.00000110,0.00000130,-0.00000022,-0.00000069,-0.00000314,0.00000263,
 0.00000555,0.00000391,-0.00000107,-0.00000062,-0.00000357,0.00000019,0
 .00000139,0.00000133,-0.00000052,-0.00000104,-0.00000266,-0.00000039,0
 .00011277,-0.00005846,-0.00003278,-0.00001607,-0.00001317,-0.00000263,
 0.00000211,0.00000268,-0.00000176,0.00000098,-0.00000160,0.00000332,0.
 00000118,-0.00000069,-0.00000212,-0.00000037,0.00000054,-0.00000032,0.
 00000226,0.00000474,-0.00000110,-0.00000477,-0.00000406,-0.00000308,-0
 .00000071,0.00000010,0.00000034,0.00000193,-0.00000047,0.00000231,-0.0
 0000101,0.00000025,0.00000011,-0.00000008,0.00000008,-0.00000009,-0.00
 000011,0.00000014,0.00000011,-0.00001056,-0.00000453,0.00000133,0.0000
 0482,0.00000216,0.00000215,0.00000342,0.00000118,-0.00000316,-0.000001
 79,-0.00000100,0.00000102,0.00000039,-0.00000004,-0.00000020,-0.000000
 17,0.00000007,-0.00000007,-0.00000004,-0.00000004,0.00000014,0.0000001
 0,0.00000024,-0.00000007,0.00000020,0.00000022,-0.00000026,-0.00000009
 ,-0.00000003,0.00000006,-0.00000002,0.,0.00000004,0.00000023,0.,-0.000
 00006,0.00000027,0.00000014,0.00000005,-0.00000007,0.,0.00000002,-0.00
 000010,-0.00000004,-0.00000002,0.00000011,0.00000004,-0.00000016,-0.00
 028405,0.00010369,-0.00006395,0.00008261,-0.00002795,-0.00001505,0.000
 04081,-0.00000631,0.00000598,-0.00024721,-0.00054657,0.00185557,-0.002
 21532,0.00107963,0.00127380,-0.00040267,0.00044003,0.00038077,0.074188
 53,-0.07986534,-0.29833952,-0.00384304,0.00131618,-0.00199604,0.009548
 22,-0.00860285,-0.01562064,0.00034983,0.00037898,0.00061028,0.00015384
 ,0.00002812,-0.00006451,-0.07843501,0.08580997,0.31166845,-0.00000046,
 0.00000247,-0.00000092,0.00000005,-0.00000633,0.00001242,-0.00000615,-
 0.00001246,-0.00001350,-0.00000585,0.00000269,0.00000022,0.00000095,-0
 .00000074,-0.00000077,-0.00000493,0.00000542,-0.00001600,-0.00000767,0
 .00000333,0.00000142,0.00000102,-0.00000061,0.00000053,-0.00001204,0.0
 0001589,0.00002462,-0.00000338,0.00000707,0.00000896,0.00002889,-0.000
 09843,-0.00005509,-0.00000119,0.00000597,-0.00001131,-0.00000278,-0.00
 000242,0.00000075,0.00000221,0.00000580,-0.00000613,-0.00000731,-0.000
 00675,0.00000408,0.00000717,0.00000174,-0.00000036,-0.00000236,-0.0000
 0287,0.00000121,0.00000050,0.00000459,0.00000082,-0.00018578,0.0000390
 9,0.00003561,0.00000735,0.00000858,0.00000760,-0.00000141,-0.00000511,
 0.00000488,0.00000518,0.00000216,-0.00001229,-0.00000166,0.00000140,0.
 00000461,0.00000076,-0.00000127,0.00000071,-0.00000386,-0.00000402,0.0
 0000079,0.00000076,0.00000355,0.00000500,0.00000086,-0.00000178,-0.000
 00080,-0.00000345,0.00000049,-0.00000332,0.00000167,-0.00000040,0.0000
 0042,0.00000020,0.00000003,0.00000020,0.,-0.00000029,-0.00000022,0.000
 01559,0.00000691,-0.00000477,-0.00000660,-0.00000306,-0.00000160,-0.00
 000506,-0.00000193,0.00000671,0.00000201,0.00000140,-0.00000182,-0.000
 00067,0.00000015,0.00000022,0.00000024,-0.00000026,0.00000010,0.000000
 09,0.00000013,0.00000003,-0.00000003,-0.00000031,0.00000003,-0.0000004
 1,-0.00000033,0.00000038,0.00000025,0.00000004,0.00000009,0.00000006,-
 0.00000005,-0.00000010,-0.00000023,0.00000002,0.00000004,-0.00000063,-
 0.00000004,-0.00000022,-0.00000003,0.00000010,0.00000003,0.00000021,-0
 .00000023,0.00000019,0.00000001,0.,0.00000027,-0.00001020,0.00023070,-
 0.00107004,0.00003974,-0.00002815,0.00004462,-0.00040621,0.00020819,-0
 .00001188,-0.00102449,0.00549246,0.00150395,-0.00048616,-0.00022122,0.
 00077142,-0.00805678,0.00519398,-0.02151120,0.00226150,0.00343292,0.00
 155453,-0.13695380,0.04691603,-0.12713709,0.00831964,-0.00153175,0.009
 42887,-0.00029528,-0.00051146,-0.00005633,-0.00014704,-0.00265263,0.00
 037677,0.00028440,-0.00004977,0.00043850,0.13737612,-0.00000019,-0.000
 00125,-0.00000013,-0.00000070,0.00000372,-0.00000984,-0.00000002,0.000
 00317,0.00000368,0.00000413,-0.00000199,0.00000015,-0.00000038,0.00000
 021,0.00000060,0.00001601,-0.00000340,0.00000847,0.00000252,-0.0000008
 5,-0.00000048,-0.00000011,0.00000015,-0.00000016,-0.00000534,-0.000000
 34,-0.00000629,0.00000023,-0.00000272,-0.00000633,0.00000514,0.0000345
 0,-0.00005742,0.00000016,-0.00000179,0.00000517,0.00000104,0.00000184,
 -0.00000018,-0.00000109,-0.00000361,0.00000256,0.00000526,0.00000232,-
 0.00000137,0.00000064,0.00000325,-0.00000163,0.00000102,0.00000110,-0.
 00000060,0.00000012,-0.00000215,-0.00000068,0.00000478,-0.00009356,-0.
 00000443,-0.00001366,-0.00001397,-0.00001301,0.00000551,0.00000014,-0.
 00000215,-0.00000048,-0.00000086,0.00000327,0.00000045,-0.00000022,-0.
 00000197,0.00000018,-0.00000037,-0.00000037,0.00000236,0.00000153,0.00
 000112,-0.00000030,-0.00000027,-0.00000337,0.00000040,0.00000009,0.000
 00026,0.00000115,-0.00000027,0.00000155,-0.00000060,0.00000033,0.00000
 024,-0.00000007,0.00000018,-0.00000011,-0.00000011,0.00000010,0.000000
 15,-0.00001026,-0.00000362,0.00000215,0.00000450,0.00000143,0.00000155
 ,0.00000362,0.00000071,-0.00000360,-0.00000195,-0.00000057,0.00000120,
 0.00000039,0.00000007,-0.00000024,-0.00000005,-0.00000004,0.00000009,-
 0.00000014,-0.00000006,0.,0.00000010,0.00000018,-0.00000006,0.00000024
 ,0.00000018,-0.00000024,-0.00000010,0.00000001,-0.00000002,0.,-0.00000
 008,0.00000004,0.00000019,-0.00000001,-0.00000002,0.00000026,0.0000001
 7,0.,-0.00000003,-0.00000011,-0.00000002,-0.00000006,0.00000003,0.0000
 0004,0.00000007,0.00000004,-0.00000016,0.00000889,0.00014132,0.0007975
 5,-0.00001463,-0.00003502,-0.00004615,0.00012162,-0.00013106,0.0000326
 0,0.00583760,0.00376108,-0.00165685,-0.00018011,-0.00093394,-0.0003486
 2,0.00855529,0.00044376,0.01405939,0.00349544,0.00473408,-0.00238223,0
 .04681242,-0.06232273,0.05558642,-0.00483075,0.00612923,-0.00848776,-0
 .00052311,-0.00072639,0.00016071,-0.00270574,-0.00257917,0.00037637,-0
 .00020399,0.00020213,-0.00041007,-0.05415704,0.05406892,-0.00000044,0.
 00000101,-0.00000016,0.00000038,-0.00000245,0.00000408,-0.00000207,-0.
 00000450,-0.00000478,-0.00000199,0.00000086,0.00000002,0.00000034,-0.0
 0000013,-0.00000030,-0.00000221,0.00000240,-0.00000369,-0.00000257,0.0
 0000119,0.00000065,0.00000037,-0.00000017,0.00000016,-0.00000387,0.000
 00836,0.00000605,-0.00000061,0.00000225,0.00000224,0.00001258,-0.00002
 826,-0.00001607,0.00000025,0.00000213,-0.00000300,-0.00000060,-0.00000
 068,0.00000024,0.00000083,0.00000206,-0.00000155,-0.00000365,-0.000002
 18,0.00000109,-0.00000109,0.00000341,-0.00000018,-0.00000065,-0.000000
 73,0.00000029,0.00000025,0.00000128,0.00000024,-0.00008709,0.00003933,
 0.00001707,0.00000876,0.00000294,0.00000147,-0.00000076,-0.00000364,0.
 00000072,0.00000154,0.00000295,-0.00000273,-0.00000087,0.00000050,0.00
 000164,0.00000047,0.00000005,0.00000003,-0.00000109,-0.00000220,0.0000
 0108,0.00000125,0.00000116,0.00000207,0.00000015,0.00000016,-0.0000001
 3,-0.00000068,0.00000040,-0.00000115,0.00000062,-0.00000013,0.00000004
 ,0.00000008,-0.00000003,0.00000004,0.00000007,-0.00000012,-0.00000005,
 0.00000652,0.00000272,-0.00000127,-0.00000286,-0.00000119,-0.00000103,
 -0.00000232,-0.00000081,0.00000236,0.00000137,0.00000067,-0.00000075,-
 0.00000040,0.00000015,0.00000005,0.00000023,-0.00000009,0.00000006,0.0
 0000006,0.00000002,-0.00000009,-0.00000010,-0.00000019,0.00000008,-0.0
 0000012,-0.00000018,0.00000019,0.00000006,0.,-0.00000003,0.00000001,0.
 00000001,-0.00000002,-0.00000018,0.,0.00000004,-0.00000036,-0.00000003
 ,-0.00000019,0.00000009,0.00000008,0.00000004,0.00000024,-0.00000005,0
 .00000008,-0.00000012,-0.00000006,0.00000017,0.00029784,-0.00016879,0.
 00017111,-0.00004411,0.00001066,-0.00000188,0.00001769,-0.00001986,0.0
 0000459,0.00075906,-0.00121214,0.00135674,0.00068673,-0.00032431,0.000
 08577,0.00458954,-0.00266661,0.00640033,0.00234215,-0.00287127,-0.0034
 3621,-0.12717786,0.05567761,-0.24475760,-0.01666769,0.00822889,-0.0155
 7684,-0.00005147,0.00017120,-0.00001041,0.00004671,0.00059601,0.000602
 46,-0.00077750,0.00038755,-0.00086101,0.13585781,-0.05842392,0.2546264
 1,-0.00000073,0.00000154,-0.00000019,-0.00000080,-0.00000381,0.0000068
 9,-0.00000352,-0.00000607,-0.00000577,-0.00000321,0.00000155,0.0000002
 1,0.00000057,-0.00000030,-0.00000047,-0.00000807,0.00000648,-0.0000071
 8,-0.00000374,0.00000159,0.00000046,0.00000065,-0.00000031,0.00000020,
 -0.00000659,0.00001045,0.00001120,-0.00000022,0.00000394,0.00000356,0.
 00000320,-0.00005415,-0.00000878,-0.00000034,0.00000338,-0.00000415,-0
 .00000098,-0.00000106,0.00000025,0.00000091,0.00000270,-0.00000249,-0.
 00000476,-0.00000381,0.00000138,0.00000205,0.00000460,-0.00000097,-0.0
 0000111,-0.00000109,0.00000045,0.00000063,0.00000199,0.00000049,-0.000
 15106,0.00006216,0.00003968,0.00000884,0.00001644,0.00000581,0.0000009
 7,-0.00000264,0.00000088,-0.00000252,0.00000175,-0.00000216,-0.0000007
 3,0.00000086,0.00000196,0.00000007,0.00000002,0.00000020,0.00000080,-0
 .00000350,0.00000040,0.00000031,0.00000177,0.00000246,0.00000046,-0.00
 000024,-0.00000022,-0.00000147,0.00000056,-0.00000178,0.00000074,-0.00
 000026,0.00000006,0.00000010,-0.00000003,0.00000008,0.00000008,-0.0000
 0013,-0.00000011,0.00000896,0.00000414,-0.00000151,-0.00000399,-0.0000
 0199,-0.00000169,-0.00000286,-0.00000120,0.00000300,0.00000141,0.00000
 098,-0.00000090,-0.00000040,0.00000011,0.00000010,0.00000022,-0.000000
 13,0.00000012,0.00000002,0.00000004,-0.00000010,-0.00000008,-0.0000002
 2,0.00000006,-0.00000019,-0.00000021,0.00000022,0.00000010,0.00000004,
 -0.00000002,0.00000003,-0.00000004,-0.00000005,-0.00000019,0.,0.000000
 05,-0.00000032,-0.00000006,-0.00000013,0.00000006,0.,0.,0.00000016,-0.
 00000002,0.00000008,-0.00000009,-0.00000004,0.00000016,-0.00027369,-0.
 00044916,0.00008802,-0.00001016,0.00000547,-0.00003634,-0.00000039,0.0
 0000248,0.00002701,0.00016283,-0.00074661,-0.00016965,0.00185805,0.003
 19762,-0.00339441,0.00300830,0.00294905,0.00123932,-0.00807962,0.00831
 294,0.00499076,-0.00243757,0.00371554,-0.00249503,-0.25168045,0.140487
 54,0.02474800,-0.00046644,0.00043516,0.00022488,-0.00020221,0.00020395
 ,-0.00012167,-0.00051953,-0.00237537,0.00052742,-0.00071352,-0.0022407
 5,0.00020128,0.25952101,0.00000070,-0.00000036,0.00000005,-0.00000139,
 0.00000044,-0.00000064,-0.00000100,0.00000070,0.00000094,0.00000054,-0
 .00000006,0.00000026,0.00000005,-0.00000004,0.00000016,-0.00000492,0.0
 0000207,-0.00000062,0.00000044,-0.00000009,-0.00000047,0.00000002,-0.0
 0000001,-0.00000009,-0.00000514,0.00000254,0.00000160,-0.00000030,-0.0
 0000006,-0.00000200,-0.00002412,-0.00001467,0.00000920,-0.00000017,0.0
 0000041,0.00000218,0.00000033,0.00000032,-0.00000005,-0.00000032,-0.00
 000128,0.00000076,0.00000280,0.00000064,-0.00000063,0.00000384,0.00000
 123,-0.00000072,0.00000040,0.00000038,-0.00000014,-0.00000003,-0.00000
 110,-0.00000009,-0.00008426,0.00003776,0.00003241,-0.00001109,0.000005
 35,0.00001027,0.00000405,0.00000147,-0.00000219,-0.00000111,-0.0000006
 9,0.00000254,0.00000163,-0.00000016,-0.00000073,-0.00000095,0.00000085
 ,-0.00000001,0.00000435,0.00000190,0.00000058,-0.00000182,-0.00000208,
 -0.00000193,-0.00000076,0.00000041,0.00000002,0.00000147,-0.00000035,0
 .00000016,-0.00000045,0.00000002,0.00000010,-0.00000001,0.00000005,-0.
 00000005,-0.00000003,0.00000008,0.00000002,-0.00000456,-0.00000143,0.0
 0000093,0.00000202,0.00000047,0.00000060,0.00000179,0.00000029,-0.0000
 0164,-0.00000116,-0.00000028,0.00000057,0.00000023,-0.00000003,-0.0000
 0012,-0.00000008,-0.00000002,0.00000006,-0.00000009,0.,0.00000008,0.00
 000011,0.00000012,-0.00000006,0.00000006,0.00000011,-0.00000013,-0.000
 00001,0.00000002,0.00000003,0.00000001,-0.00000007,0.,0.00000014,0.,-0
 .00000002,0.00000012,0.00000008,0.00000002,-0.00000005,-0.00000007,-0.
 00000002,-0.00000007,-0.00000002,0.00000003,0.00000009,0.00000004,-0.0
 0000010,-0.00060066,-0.00064687,0.00009509,0.00004190,-0.00001865,-0.0
 0011294,0.00006435,-0.00001231,0.00007623,-0.00062654,-0.00054738,0.00
 005812,0.00320058,0.00550360,0.00088129,0.00277132,0.00522447,-0.00231
 195,0.00521817,0.00022892,-0.00271827,0.00706571,-0.00052264,0.0011762
 2,0.14045715,-0.13126530,-0.01871655,0.00030998,-0.00007354,-0.0001313
 2,0.00039246,-0.00012877,0.00004063,-0.00234051,-0.00275831,0.00034118
 ,-0.00229158,-0.00267552,0.00058668,-0.15354361,0.12765744,0.00000014,
 -0.00000029,0.00000011,-0.00000007,0.00000073,0.,0.00000114,0.00000109
 ,0.00000148,0.00000027,-0.00000011,-0.00000007,-0.00000009,0.00000005,
 0.00000009,0.00000044,0.00000030,0.00000026,0.00000075,-0.00000033,-0.
 00000009,-0.00000008,0.00000007,0.,0.00000191,-0.00000345,-0.00000221,
 -0.00000049,-0.00000059,-0.00000057,0.00000196,0.00000644,0.00000860,0
 .00000034,-0.00000044,0.00000027,0.00000013,0.00000013,-0.00000002,-0.
 00000037,-0.00000053,0.00000036,0.00000076,0.00000058,0.,0.00000049,-0
 .00000031,-0.00000056,0.00000010,0.00000019,-0.00000001,-0.00000006,-0
 .00000010,-0.00000007,0.00003341,-0.00001014,0.00000562,0.00001212,0.0
 0000278,-0.00000976,-0.00000100,0.00000182,-0.00000055,-0.00000018,-0.
 00000132,0.00000101,0.00000088,-0.00000049,-0.00000030,-0.00000021,0.0
 0000006,0.00000004,-0.00000013,-0.00000138,-0.00000099,0.00000079,0.00
 000152,0.00000018,0.00000046,-0.00000034,0.00000007,-0.00000072,0.0000
 0029,0.00000055,-0.00000006,0.00000007,0.00000016,0.,0.00000005,-0.000
 00002,-0.00000003,-0.00000001,0.00000002,-0.00000124,-0.00000056,0.000
 00058,0.00000056,0.00000026,0.00000014,0.00000042,0.00000020,-0.000000
 57,-0.00000023,-0.00000016,0.00000020,0.00000008,-0.00000002,-0.000000
 02,-0.00000004,0.00000002,0.,-0.00000001,0.,0.,0.00000002,0.00000003,0
 .,0.00000004,0.00000003,-0.00000004,-0.00000002,0.,0.,-0.00000001,0.,0
 .,0.00000003,0.,0.,0.00000005,0.,0.,-0.00000001,0.,0.,-0.00000003,0.,-
 0.00000001,0.00000002,0.,-0.00000002,0.00008207,0.00009847,0.00018568,
 -0.00004644,0.00003440,0.00003953,0.00005165,-0.00003752,0.00001487,-0
 .00017302,0.00010606,-0.00103463,-0.00264806,0.00033510,-0.00351939,0.
 00049129,-0.00181497,-0.00454640,-0.02117999,0.01396629,0.00655085,0.0
 2363566,-0.01548852,0.00160697,0.02478561,-0.01872355,-0.06050387,-0.0
 0100343,0.00066011,0.00017357,0.00109985,-0.00074269,-0.00005812,0.000
 90759,0.00010112,0.00120129,-0.00018365,0.00082513,0.00139142,-0.02587
 134,0.02068443,0.05849436\\-0.00000444,0.00000116,-0.00000192,0.000002
 63,-0.00000137,0.00000398,-0.00000189,-0.00000157,0.00000170,0.0000001
 5,-0.00000212,0.00000165,-0.00000111,-0.00000063,0.00000272,-0.0000020
 5,-0.00000023,0.00000466,-0.00000314,0.00000019,-0.00000043,-0.0000034
 2,0.00000040,0.00000346,-0.00000365,0.00000389,-0.00000127,0.00000004,
 0.00000093,-0.00000317,0.00000065,-0.00000300,0.00000188,0.00000125,-0
 .00000126,-0.00000427,-0.00000018,-0.00000303,0.00000077,0.00000031,-0
 .00000039,-0.00000196,0.00001871,0.00000509,0.00000317,-0.00000191,0.0
 0000052,0.00000351,0.00000206,0.00000056,0.00000085,-0.00000170,0.0000
 0030,-0.00000067,-0.00000150,0.00000815,-0.00000530,0.00000054,-0.0000
 0049,0.00000458,0.00000148,-0.00000098,-0.00000163,0.00000054,0.000000
 72,-0.00000167,0.00000089,-0.00000143,0.00000064,-0.00000068,0.0000000
 4,0.00000144,-0.00000237,0.00000353,0.00000020,-0.00000088,0.00000308,
 -0.00000233,-0.00000267,0.00000266,0.00000151,-0.00000203,0.00000266,0
 .00000025,0.00000076,-0.00000021,0.00000428,-0.00000223,-0.00000311,0.
 00000154,-0.00000059,-0.00000166,0.00000288,-0.00001509,-0.00001171,-0
 .00001006,-0.00000414,-0.00000211,0.00001156,0.00000308,-0.00000232,-0
 .00000266,-0.00000458,-0.00000493,0.00000766,0.00000505,-0.00000207,0.
 00000056,0.00000314,-0.00000258,-0.00000208,0.00000260,-0.00000286,-0.
 00000309,0.00000323,-0.00000354,-0.00000208,0.00000420,-0.00000228,0.0
 0000123,0.00000173,-0.00000310,0.00000039,0.00000086,-0.00000464,0.000
 00317,0.00000180,-0.00000615,-0.00000046,0.00000612,-0.00000234,0.0000
 0016,0.00000200,-0.00000485,0.00000082,0.00000228,-0.00000489,0.000000
 12,0.00000274,-0.00000515,0.00000071,0.00000071,0.00000009,0.00000215,
 -0.00000060,0.00000362,0.00000204,-0.00000326,0.00000371,0.00000076,-0
 .00000111,0.00000026,-0.00000186,-0.00000024,0.00000503,-0.00000346,0.
 00000026,0.00000451,-0.00000190,-0.00000200,0.00000611,-0.00000348,0.0
 0000111,0.00000309,-0.00000423,-0.00000090,0.00000444,-0.00000185,-0.0
 0000244,0.00000464,-0.00000157,-0.00000019,0.00000244,-0.00000196,-0.0
 0000073,0.00000584,-0.00000331,0.00000053,0.00000364,-0.00000347,0.000
 00023,0.00000571,-0.00000485\\\@


 WE TEND TO MEET ANY NEW SITUATION BY REORGANIZING. IT CAN BE A
 WONDERFUL METHOD FOR CREATING THE ILLUSION OF PROGRESS WHILE PRODUCING
 CONFUSION, INEFFICIENCY, AND DEMORALIZATION.
     -- PETRONIUS ARBITER, 210 B.C.
 Job cpu time:       0 days  8 hours 29 minutes  0.7 seconds.
 Elapsed time:       0 days  0 hours 25 minutes 29.0 seconds.
 File lengths (MBytes):  RWF=   2077 Int=      0 D2E=      0 Chk=     46 Scr=      1
 Normal termination of Gaussian 16 at Wed Apr 21 18:51:22 2021.
