 Entering Gaussian System, Link 0=/opt/g16avx/g16
 Input=product_w.gjf
 Output=product_w.log
 Initial command:
 /opt/g16avx/l1.exe "/home/scratch/Gau-17256.inp" -scrdir="/home/scratch/"
 Entering Link 1 = /opt/g16avx/l1.exe PID=     17257.
  
 Copyright (c) 1988,1990,1992,1993,1995,1998,2003,2009,2016,
            Gaussian, Inc.  All Rights Reserved.
  
 This is part of the Gaussian(R) 16 program.  It is based on
 the Gaussian(R) 09 system (copyright 2009, Gaussian, Inc.),
 the Gaussian(R) 03 system (copyright 2003, Gaussian, Inc.),
 the Gaussian(R) 98 system (copyright 1998, Gaussian, Inc.),
 the Gaussian(R) 94 system (copyright 1995, Gaussian, Inc.),
 the Gaussian 92(TM) system (copyright 1992, Gaussian, Inc.),
 the Gaussian 90(TM) system (copyright 1990, Gaussian, Inc.),
 the Gaussian 88(TM) system (copyright 1988, Gaussian, Inc.),
 the Gaussian 86(TM) system (copyright 1986, Carnegie Mellon
 University), and the Gaussian 82(TM) system (copyright 1983,
 Carnegie Mellon University). Gaussian is a federally registered
 trademark of Gaussian, Inc.
  
 This software contains proprietary and confidential information,
 including trade secrets, belonging to Gaussian, Inc.
  
 This software is provided under written license and may be
 used, copied, transmitted, or stored only in accord with that
 written license.
  
 The following legend is applicable only to US Government
 contracts under FAR:
  
                    RESTRICTED RIGHTS LEGEND
  
 Use, reproduction and disclosure by the US Government is
 subject to restrictions as set forth in subparagraphs (a)
 and (c) of the Commercial Computer Software - Restricted
 Rights clause in FAR 52.227-19.
  
 Gaussian, Inc.
 340 Quinnipiac St., Bldg. 40, Wallingford CT 06492
  
  
 ---------------------------------------------------------------
 Warning -- This program may not be used in any manner that
 competes with the business of Gaussian, Inc. or will provide
 assistance to any competitor of Gaussian, Inc.  The licensee
 of this program is prohibited from giving any competitor of
 Gaussian, Inc. access to this program.  By using this program,
 the user acknowledges that Gaussian, Inc. is engaged in the
 business of creating and licensing software in the field of
 computational chemistry and represents and warrants to the
 licensee that it is not a competitor of Gaussian, Inc. and that
 it will not use this program in any manner prohibited above.
 ---------------------------------------------------------------
  

 Cite this work as:
 Gaussian 16, Revision A.03,
 M. J. Frisch, G. W. Trucks, H. B. Schlegel, G. E. Scuseria, 
 M. A. Robb, J. R. Cheeseman, G. Scalmani, V. Barone, 
 G. A. Petersson, H. Nakatsuji, X. Li, M. Caricato, A. V. Marenich, 
 J. Bloino, B. G. Janesko, R. Gomperts, B. Mennucci, H. P. Hratchian, 
 J. V. Ortiz, A. F. Izmaylov, J. L. Sonnenberg, D. Williams-Young, 
 F. Ding, F. Lipparini, F. Egidi, J. Goings, B. Peng, A. Petrone, 
 T. Henderson, D. Ranasinghe, V. G. Zakrzewski, J. Gao, N. Rega, 
 G. Zheng, W. Liang, M. Hada, M. Ehara, K. Toyota, R. Fukuda, 
 J. Hasegawa, M. Ishida, T. Nakajima, Y. Honda, O. Kitao, H. Nakai, 
 T. Vreven, K. Throssell, J. A. Montgomery, Jr., J. E. Peralta, 
 F. Ogliaro, M. J. Bearpark, J. J. Heyd, E. N. Brothers, K. N. Kudin, 
 V. N. Staroverov, T. A. Keith, R. Kobayashi, J. Normand, 
 K. Raghavachari, A. P. Rendell, J. C. Burant, S. S. Iyengar, 
 J. Tomasi, M. Cossi, J. M. Millam, M. Klene, C. Adamo, R. Cammi, 
 J. W. Ochterski, R. L. Martin, K. Morokuma, O. Farkas, 
 J. B. Foresman, and D. J. Fox, Gaussian, Inc., Wallingford CT, 2016.
 
 ******************************************
 Gaussian 16:  ES64L-G16RevA.03 25-Dec-2016
                12-Mar-2021 
 ******************************************
 %chk=pr_w.chk
 %nprocshared=20
 Will use up to   20 processors via shared memory.
 %mem=20Gb
 ----------------------------------------------------------------------
 #p opt PBE1PBE/DEF2SVP empiricaldispersion=gd3bj scrf=(SMD, solvent=Wa
 ter) freq=noraman pop=SaveNBOs
 ----------------------------------------------------------------------
 1/18=20,19=15,26=3,38=1/1,3;
 2/9=110,12=2,17=6,18=5,40=1/2;
 3/5=43,7=101,11=2,25=1,30=1,70=32201,71=1,72=1,74=-13,124=41/1,2,3;
 4//1;
 5/5=2,38=5,53=1/2;
 6/7=2,8=2,9=2,10=2,28=1,40=1,73=1/1,7;
 7//1,2,3,16;
 1/18=20,19=15,26=3/3(2);
 2/9=110/2;
 99//99;
 2/9=110/2;
 3/5=43,7=101,11=2,25=1,30=1,70=32205,71=1,72=1,74=-13,124=41/1,2,3;
 4/5=5,16=3,69=1/1;
 5/5=2,38=5,53=1/2;
 7//1,2,3,16;
 1/18=20,19=15,26=3/3(-5);
 2/9=110/2;
 6/7=2,8=2,9=2,10=2,19=2,28=1,40=1,73=1/1,7;
 99/9=1/99;
 Leave Link    1 at Fri Mar 12 18:52:56 2021, MaxMem=  2684354560 cpu:               2.6 elap:               0.2
 (Enter /opt/g16avx/l101.exe)
 ---------------
 Vatsadze, way 1
 ---------------
 Symbolic Z-matrix:
 Charge =  0 Multiplicity = 1
 N                     0.34818  -1.81571  -2.08448 
 C                    -0.00883  -0.90517  -1.07635 
 C                     0.5871   -3.15513  -1.73094 
 H                     0.49436   0.04653  -1.30464 
 H                    -1.08418  -0.69331  -1.21873 
 C                     0.21615  -1.27548   0.40253 
 H                     1.32866  -3.55095  -2.43849 
 H                    -0.33459  -3.73492  -1.91837 
 C                     1.05017  -3.38238  -0.27878 
 C                     1.72274  -1.27714   0.7585 
 C                    -0.05273  -2.77175   0.62304 
 C                     2.2729   -2.47002  -0.03759 
 H                     2.22211  -0.3373    0.50587 
 H                     1.5314   -0.74004   2.70377 
 N                     1.91941  -1.51451   2.1779 
 H                    -1.04017  -3.08443   0.28346 
 H                     2.68751  -2.12993  -0.98665 
 H                     3.06657  -2.96522   0.51838 
 N                     0.07871  -3.08602   2.02922 
 C                    -0.62917  -0.36264   1.28591 
 H                    -0.62211  -0.69881   2.32067 
 H                    -0.25843   0.66036   1.24063 
 H                    -1.66461  -0.36691   0.94949 
 C                     1.29902  -4.86586  -0.04697 
 H                     1.63132  -5.0643    0.96826 
 H                     0.38416  -5.43164  -0.21555 
 H                     2.06118  -5.22857  -0.73439 
 C                     1.36816  -2.77235   2.6262 
 H                     2.11351  -3.55484   2.41146 
 H                     1.24115  -2.72135   3.71121 
 C                    -1.01854  -3.6831    2.8041 
 H                    -0.96735  -3.32441   3.8423 
 H                    -1.97982  -3.32441   2.40862 
 C                    -1.01183  -5.22308   2.79937 
 C                    -0.3135   -5.94558   3.78154 
 C                    -1.70387  -5.94558   1.81275 
 C                    -0.30725  -7.33941   3.77752 
 C                    -1.69799  -7.33941   1.80821 
 C                    -0.99956  -8.04305   2.7907 
 H                     0.22826  -5.40818   4.55365 
 H                    -2.25032  -5.40818   1.04395 
 H                     0.2397   -7.87669   4.54706 
 H                    -2.24027  -7.87669   1.03537 
 H                    -0.99483  -9.12903   2.78736 
 C                     0.7568   -2.21259  -3.47211 
 O                     0.66299  -1.17887  -4.07156 
 O                     1.735    -2.73113  -4.1678 
 C                     2.5875   -1.89966  -5.0311 
 C                     1.73747  -1.27412  -6.12593 
 H                     1.1895   -2.05225  -6.67757 
 H                     1.0199   -0.5537   -5.7137 
 H                     2.39254  -0.74795  -6.83489 
 C                     3.30823  -0.8624   -4.18431 
 H                     2.60662  -0.13533  -3.75647 
 H                     3.86281  -1.35047  -3.36925 
 H                     4.02951  -0.32171  -4.81361 
 C                     3.56418  -2.90991  -5.60696 
 H                     4.13967  -3.39293  -4.80416 
 H                     3.02885  -3.68608  -6.1726 
 H                     4.26576  -2.40436  -6.28491 
 
 ITRead=  0  0  0  0  0  0  0  0  0  0  0  0  0  0  0  0  0  0  0  0
 ITRead=  0  0  0  0  0  0  0  0  0  0  0  0  0  0  0  0  0  0  0  0
 ITRead=  0  0  0  0  0  0  0  0  0  0  0  0  0  0  0  0  0  0  0  0
 MicOpt= -1 -1 -1 -1 -1 -1 -1 -1 -1 -1 -1 -1 -1 -1 -1 -1 -1 -1 -1 -1
 MicOpt= -1 -1 -1 -1 -1 -1 -1 -1 -1 -1 -1 -1 -1 -1 -1 -1 -1 -1 -1 -1
 MicOpt= -1 -1 -1 -1 -1 -1 -1 -1 -1 -1 -1 -1 -1 -1 -1 -1 -1 -1 -1 -1
 NAtoms=     60 NQM=       60 NQMF=       0 NMMI=      0 NMMIF=      0
                NMic=       0 NMicF=      0.
                    Isotopes and Nuclear Properties:
 (Nuclear quadrupole moments (NQMom) in fm**2, nuclear magnetic moments (NMagM)
  in nuclear magnetons)

  Atom         1           2           3           4           5           6           7           8           9          10
 IAtWgt=          14          12          12           1           1          12           1           1          12          12
 AtmWgt=  14.0030740  12.0000000  12.0000000   1.0078250   1.0078250  12.0000000   1.0078250   1.0078250  12.0000000  12.0000000
 NucSpn=           2           0           0           1           1           0           1           1           0           0
 AtZEff=  -0.0000000  -0.0000000  -0.0000000  -0.0000000  -0.0000000  -0.0000000  -0.0000000  -0.0000000  -0.0000000  -0.0000000
 NQMom=    2.0440000   0.0000000   0.0000000   0.0000000   0.0000000   0.0000000   0.0000000   0.0000000   0.0000000   0.0000000
 NMagM=    0.4037610   0.0000000   0.0000000   2.7928460   2.7928460   0.0000000   2.7928460   2.7928460   0.0000000   0.0000000
 AtZNuc=   7.0000000   6.0000000   6.0000000   1.0000000   1.0000000   6.0000000   1.0000000   1.0000000   6.0000000   6.0000000

  Atom        11          12          13          14          15          16          17          18          19          20
 IAtWgt=          12          12           1           1          14           1           1           1          14          12
 AtmWgt=  12.0000000  12.0000000   1.0078250   1.0078250  14.0030740   1.0078250   1.0078250   1.0078250  14.0030740  12.0000000
 NucSpn=           0           0           1           1           2           1           1           1           2           0
 AtZEff=  -0.0000000  -0.0000000  -0.0000000  -0.0000000  -0.0000000  -0.0000000  -0.0000000  -0.0000000  -0.0000000  -0.0000000
 NQMom=    0.0000000   0.0000000   0.0000000   0.0000000   2.0440000   0.0000000   0.0000000   0.0000000   2.0440000   0.0000000
 NMagM=    0.0000000   0.0000000   2.7928460   2.7928460   0.4037610   2.7928460   2.7928460   2.7928460   0.4037610   0.0000000
 AtZNuc=   6.0000000   6.0000000   1.0000000   1.0000000   7.0000000   1.0000000   1.0000000   1.0000000   7.0000000   6.0000000

  Atom        21          22          23          24          25          26          27          28          29          30
 IAtWgt=           1           1           1          12           1           1           1          12           1           1
 AtmWgt=   1.0078250   1.0078250   1.0078250  12.0000000   1.0078250   1.0078250   1.0078250  12.0000000   1.0078250   1.0078250
 NucSpn=           1           1           1           0           1           1           1           0           1           1
 AtZEff=  -0.0000000  -0.0000000  -0.0000000  -0.0000000  -0.0000000  -0.0000000  -0.0000000  -0.0000000  -0.0000000  -0.0000000
 NQMom=    0.0000000   0.0000000   0.0000000   0.0000000   0.0000000   0.0000000   0.0000000   0.0000000   0.0000000   0.0000000
 NMagM=    2.7928460   2.7928460   2.7928460   0.0000000   2.7928460   2.7928460   2.7928460   0.0000000   2.7928460   2.7928460
 AtZNuc=   1.0000000   1.0000000   1.0000000   6.0000000   1.0000000   1.0000000   1.0000000   6.0000000   1.0000000   1.0000000

  Atom        31          32          33          34          35          36          37          38          39          40
 IAtWgt=          12           1           1          12          12          12          12          12          12           1
 AtmWgt=  12.0000000   1.0078250   1.0078250  12.0000000  12.0000000  12.0000000  12.0000000  12.0000000  12.0000000   1.0078250
 NucSpn=           0           1           1           0           0           0           0           0           0           1
 AtZEff=  -0.0000000  -0.0000000  -0.0000000  -0.0000000  -0.0000000  -0.0000000  -0.0000000  -0.0000000  -0.0000000  -0.0000000
 NQMom=    0.0000000   0.0000000   0.0000000   0.0000000   0.0000000   0.0000000   0.0000000   0.0000000   0.0000000   0.0000000
 NMagM=    0.0000000   2.7928460   2.7928460   0.0000000   0.0000000   0.0000000   0.0000000   0.0000000   0.0000000   2.7928460
 AtZNuc=   6.0000000   1.0000000   1.0000000   6.0000000   6.0000000   6.0000000   6.0000000   6.0000000   6.0000000   1.0000000

  Atom        41          42          43          44          45          46          47          48          49          50
 IAtWgt=           1           1           1           1          12          16          16          12          12           1
 AtmWgt=   1.0078250   1.0078250   1.0078250   1.0078250  12.0000000  15.9949146  15.9949146  12.0000000  12.0000000   1.0078250
 NucSpn=           1           1           1           1           0           0           0           0           0           1
 AtZEff=  -0.0000000  -0.0000000  -0.0000000  -0.0000000  -0.0000000  -0.0000000  -0.0000000  -0.0000000  -0.0000000  -0.0000000
 NQMom=    0.0000000   0.0000000   0.0000000   0.0000000   0.0000000   0.0000000   0.0000000   0.0000000   0.0000000   0.0000000
 NMagM=    2.7928460   2.7928460   2.7928460   2.7928460   0.0000000   0.0000000   0.0000000   0.0000000   0.0000000   2.7928460
 AtZNuc=   1.0000000   1.0000000   1.0000000   1.0000000   6.0000000   8.0000000   8.0000000   6.0000000   6.0000000   1.0000000

  Atom        51          52          53          54          55          56          57          58          59          60
 IAtWgt=           1           1          12           1           1           1          12           1           1           1
 AtmWgt=   1.0078250   1.0078250  12.0000000   1.0078250   1.0078250   1.0078250  12.0000000   1.0078250   1.0078250   1.0078250
 NucSpn=           1           1           0           1           1           1           0           1           1           1
 AtZEff=  -0.0000000  -0.0000000  -0.0000000  -0.0000000  -0.0000000  -0.0000000  -0.0000000  -0.0000000  -0.0000000  -0.0000000
 NQMom=    0.0000000   0.0000000   0.0000000   0.0000000   0.0000000   0.0000000   0.0000000   0.0000000   0.0000000   0.0000000
 NMagM=    2.7928460   2.7928460   0.0000000   2.7928460   2.7928460   2.7928460   0.0000000   2.7928460   2.7928460   2.7928460
 AtZNuc=   1.0000000   1.0000000   6.0000000   1.0000000   1.0000000   1.0000000   6.0000000   1.0000000   1.0000000   1.0000000
 Leave Link  101 at Fri Mar 12 18:52:57 2021, MaxMem=  2684354560 cpu:              10.6 elap:               0.7
 (Enter /opt/g16avx/l103.exe)

 GradGradGradGradGradGradGradGradGradGradGradGradGradGradGradGradGradGrad
 Berny optimization.
 Initialization pass.
                           ----------------------------
                           !    Initial Parameters    !
                           ! (Angstroms and Degrees)  !
 --------------------------                            --------------------------
 ! Name  Definition              Value          Derivative Info.                !
 --------------------------------------------------------------------------------
 ! R1    R(1,2)                  1.4046         estimate D2E/DX2                !
 ! R2    R(1,3)                  1.4057         estimate D2E/DX2                !
 ! R3    R(1,45)                 1.5            estimate D2E/DX2                !
 ! R4    R(2,4)                  1.1005         estimate D2E/DX2                !
 ! R5    R(2,5)                  1.1052         estimate D2E/DX2                !
 ! R6    R(2,6)                  1.541          estimate D2E/DX2                !
 ! R7    R(3,7)                  1.0987         estimate D2E/DX2                !
 ! R8    R(3,8)                  1.1049         estimate D2E/DX2                !
 ! R9    R(3,9)                  1.541          estimate D2E/DX2                !
 ! R10   R(6,10)                 1.5481         estimate D2E/DX2                !
 ! R11   R(6,11)                 1.5361         estimate D2E/DX2                !
 ! R12   R(6,20)                 1.5258         estimate D2E/DX2                !
 ! R13   R(9,11)                 1.55           estimate D2E/DX2                !
 ! R14   R(9,12)                 1.5446         estimate D2E/DX2                !
 ! R15   R(9,24)                 1.522          estimate D2E/DX2                !
 ! R16   R(10,12)                1.536          estimate D2E/DX2                !
 ! R17   R(10,13)                1.0938         estimate D2E/DX2                !
 ! R18   R(10,15)                1.4525         estimate D2E/DX2                !
 ! R19   R(11,16)                1.09           estimate D2E/DX2                !
 ! R20   R(11,19)                1.4468         estimate D2E/DX2                !
 ! R21   R(12,17)                1.0901         estimate D2E/DX2                !
 ! R22   R(12,18)                1.0882         estimate D2E/DX2                !
 ! R23   R(14,15)                1.0134         estimate D2E/DX2                !
 ! R24   R(15,28)                1.4446         estimate D2E/DX2                !
 ! R25   R(19,28)                1.4551         estimate D2E/DX2                !
 ! R26   R(19,31)                1.47           estimate D2E/DX2                !
 ! R27   R(20,21)                1.088          estimate D2E/DX2                !
 ! R28   R(20,22)                1.0891         estimate D2E/DX2                !
 ! R29   R(20,23)                1.0887         estimate D2E/DX2                !
 ! R30   R(24,25)                1.0865         estimate D2E/DX2                !
 ! R31   R(24,26)                1.0888         estimate D2E/DX2                !
 ! R32   R(24,27)                1.0886         estimate D2E/DX2                !
 ! R33   R(28,29)                1.1018         estimate D2E/DX2                !
 ! R34   R(28,30)                1.0936         estimate D2E/DX2                !
 ! R35   R(31,32)                1.0996         estimate D2E/DX2                !
 ! R36   R(31,33)                1.0996         estimate D2E/DX2                !
 ! R37   R(31,34)                1.54           estimate D2E/DX2                !
 ! R38   R(34,35)                1.4051         estimate D2E/DX2                !
 ! R39   R(34,36)                1.4051         estimate D2E/DX2                !
 ! R40   R(35,37)                1.3939         estimate D2E/DX2                !
 ! R41   R(35,40)                1.0856         estimate D2E/DX2                !
 ! R42   R(36,38)                1.3939         estimate D2E/DX2                !
 ! R43   R(36,41)                1.0856         estimate D2E/DX2                !
 ! R44   R(37,39)                1.3958         estimate D2E/DX2                !
 ! R45   R(37,42)                1.0863         estimate D2E/DX2                !
 ! R46   R(38,39)                1.3958         estimate D2E/DX2                !
 ! R47   R(38,43)                1.0863         estimate D2E/DX2                !
 ! R48   R(39,44)                1.086          estimate D2E/DX2                !
 ! R49   R(45,46)                1.1986         estimate D2E/DX2                !
 ! R50   R(45,47)                1.3076         estimate D2E/DX2                !
 ! R51   R(47,48)                1.4708         estimate D2E/DX2                !
 ! R52   R(48,49)                1.5207         estimate D2E/DX2                !
 ! R53   R(48,53)                1.5207         estimate D2E/DX2                !
 ! R54   R(48,57)                1.5186         estimate D2E/DX2                !
 ! R55   R(49,50)                1.1            estimate D2E/DX2                !
 ! R56   R(49,51)                1.0972         estimate D2E/DX2                !
 ! R57   R(49,52)                1.0994         estimate D2E/DX2                !
 ! R58   R(53,54)                1.0972         estimate D2E/DX2                !
 ! R59   R(53,55)                1.1            estimate D2E/DX2                !
 ! R60   R(53,56)                1.0994         estimate D2E/DX2                !
 ! R61   R(57,58)                1.0995         estimate D2E/DX2                !
 ! R62   R(57,59)                1.0995         estimate D2E/DX2                !
 ! R63   R(57,60)                1.0988         estimate D2E/DX2                !
 ! A1    A(2,1,3)              118.7094         estimate D2E/DX2                !
 ! A2    A(2,1,45)             154.7874         estimate D2E/DX2                !
 ! A3    A(3,1,45)              86.2303         estimate D2E/DX2                !
 ! A4    A(1,2,4)              107.1885         estimate D2E/DX2                !
 ! A5    A(1,2,5)              106.2069         estimate D2E/DX2                !
 ! A6    A(1,2,6)              119.7292         estimate D2E/DX2                !
 ! A7    A(4,2,5)              104.6184         estimate D2E/DX2                !
 ! A8    A(4,2,6)              109.885          estimate D2E/DX2                !
 ! A9    A(5,2,6)              108.1637         estimate D2E/DX2                !
 ! A10   A(1,3,7)              107.2178         estimate D2E/DX2                !
 ! A11   A(1,3,8)              108.3936         estimate D2E/DX2                !
 ! A12   A(1,3,9)              115.3765         estimate D2E/DX2                !
 ! A13   A(7,3,8)              105.3508         estimate D2E/DX2                !
 ! A14   A(7,3,9)              110.5421         estimate D2E/DX2                !
 ! A15   A(8,3,9)              109.4596         estimate D2E/DX2                !
 ! A16   A(2,6,10)             111.2846         estimate D2E/DX2                !
 ! A17   A(2,6,11)             110.2592         estimate D2E/DX2                !
 ! A18   A(2,6,20)             109.3267         estimate D2E/DX2                !
 ! A19   A(10,6,11)             97.8331         estimate D2E/DX2                !
 ! A20   A(10,6,20)            113.9959         estimate D2E/DX2                !
 ! A21   A(11,6,20)            113.7438         estimate D2E/DX2                !
 ! A22   A(3,9,11)             106.0426         estimate D2E/DX2                !
 ! A23   A(3,9,12)             107.3331         estimate D2E/DX2                !
 ! A24   A(3,9,24)             109.657          estimate D2E/DX2                !
 ! A25   A(11,9,12)            103.8706         estimate D2E/DX2                !
 ! A26   A(11,9,24)            114.3124         estimate D2E/DX2                !
 ! A27   A(12,9,24)            114.9947         estimate D2E/DX2                !
 ! A28   A(6,10,12)            103.3108         estimate D2E/DX2                !
 ! A29   A(6,10,13)            112.9709         estimate D2E/DX2                !
 ! A30   A(6,10,15)            110.8947         estimate D2E/DX2                !
 ! A31   A(12,10,13)           112.585          estimate D2E/DX2                !
 ! A32   A(12,10,15)           109.3328         estimate D2E/DX2                !
 ! A33   A(13,10,15)           107.7156         estimate D2E/DX2                !
 ! A34   A(6,11,9)             100.1171         estimate D2E/DX2                !
 ! A35   A(6,11,16)            113.1567         estimate D2E/DX2                !
 ! A36   A(6,11,19)            109.5836         estimate D2E/DX2                !
 ! A37   A(9,11,16)            110.5069         estimate D2E/DX2                !
 ! A38   A(9,11,19)            114.5354         estimate D2E/DX2                !
 ! A39   A(16,11,19)           108.8308         estimate D2E/DX2                !
 ! A40   A(9,12,10)            104.8399         estimate D2E/DX2                !
 ! A41   A(9,12,17)            110.4524         estimate D2E/DX2                !
 ! A42   A(9,12,18)            112.8514         estimate D2E/DX2                !
 ! A43   A(10,12,17)           110.1921         estimate D2E/DX2                !
 ! A44   A(10,12,18)           110.4773         estimate D2E/DX2                !
 ! A45   A(17,12,18)           108.0218         estimate D2E/DX2                !
 ! A46   A(10,15,14)           109.2913         estimate D2E/DX2                !
 ! A47   A(10,15,28)           113.1959         estimate D2E/DX2                !
 ! A48   A(14,15,28)           110.9954         estimate D2E/DX2                !
 ! A49   A(11,19,28)           115.62           estimate D2E/DX2                !
 ! A50   A(11,19,31)           122.19           estimate D2E/DX2                !
 ! A51   A(28,19,31)           122.1901         estimate D2E/DX2                !
 ! A52   A(6,20,21)            111.2335         estimate D2E/DX2                !
 ! A53   A(6,20,22)            110.445          estimate D2E/DX2                !
 ! A54   A(6,20,23)            110.2214         estimate D2E/DX2                !
 ! A55   A(21,20,22)           109.1211         estimate D2E/DX2                !
 ! A56   A(21,20,23)           107.3871         estimate D2E/DX2                !
 ! A57   A(22,20,23)           108.3363         estimate D2E/DX2                !
 ! A58   A(9,24,25)            111.7374         estimate D2E/DX2                !
 ! A59   A(9,24,26)            110.2144         estimate D2E/DX2                !
 ! A60   A(9,24,27)            110.0642         estimate D2E/DX2                !
 ! A61   A(25,24,26)           107.8629         estimate D2E/DX2                !
 ! A62   A(25,24,27)           108.3651         estimate D2E/DX2                !
 ! A63   A(26,24,27)           108.5039         estimate D2E/DX2                !
 ! A64   A(15,28,19)           113.485          estimate D2E/DX2                !
 ! A65   A(15,28,29)           107.4422         estimate D2E/DX2                !
 ! A66   A(15,28,30)           108.1557         estimate D2E/DX2                !
 ! A67   A(19,28,29)           111.4942         estimate D2E/DX2                !
 ! A68   A(19,28,30)           108.3103         estimate D2E/DX2                !
 ! A69   A(29,28,30)           107.7609         estimate D2E/DX2                !
 ! A70   A(19,31,32)           109.2962         estimate D2E/DX2                !
 ! A71   A(19,31,33)           109.2962         estimate D2E/DX2                !
 ! A72   A(19,31,34)           113.6597         estimate D2E/DX2                !
 ! A73   A(32,31,33)           105.8945         estimate D2E/DX2                !
 ! A74   A(32,31,34)           109.2014         estimate D2E/DX2                !
 ! A75   A(33,31,34)           109.2015         estimate D2E/DX2                !
 ! A76   A(31,34,35)           120.9441         estimate D2E/DX2                !
 ! A77   A(31,34,36)           120.944          estimate D2E/DX2                !
 ! A78   A(35,34,36)           118.1119         estimate D2E/DX2                !
 ! A79   A(34,35,37)           120.9574         estimate D2E/DX2                !
 ! A80   A(34,35,40)           119.3831         estimate D2E/DX2                !
 ! A81   A(37,35,40)           119.6595         estimate D2E/DX2                !
 ! A82   A(34,36,38)           120.9574         estimate D2E/DX2                !
 ! A83   A(34,36,41)           119.3832         estimate D2E/DX2                !
 ! A84   A(38,36,41)           119.6595         estimate D2E/DX2                !
 ! A85   A(35,37,39)           120.2599         estimate D2E/DX2                !
 ! A86   A(35,37,42)           119.6574         estimate D2E/DX2                !
 ! A87   A(39,37,42)           120.0827         estimate D2E/DX2                !
 ! A88   A(36,38,39)           120.2599         estimate D2E/DX2                !
 ! A89   A(36,38,43)           119.6574         estimate D2E/DX2                !
 ! A90   A(39,38,43)           120.0827         estimate D2E/DX2                !
 ! A91   A(37,39,38)           119.4536         estimate D2E/DX2                !
 ! A92   A(37,39,44)           120.2732         estimate D2E/DX2                !
 ! A93   A(38,39,44)           120.2732         estimate D2E/DX2                !
 ! A94   A(1,45,46)            102.3064         estimate D2E/DX2                !
 ! A95   A(1,45,47)            143.2174         estimate D2E/DX2                !
 ! A96   A(46,45,47)            97.7283         estimate D2E/DX2                !
 ! A97   A(45,47,48)           121.4464         estimate D2E/DX2                !
 ! A98   A(47,48,49)           109.3373         estimate D2E/DX2                !
 ! A99   A(47,48,53)           109.479          estimate D2E/DX2                !
 ! A100  A(47,48,57)           102.6661         estimate D2E/DX2                !
 ! A101  A(49,48,53)           112.6595         estimate D2E/DX2                !
 ! A102  A(49,48,57)           111.1092         estimate D2E/DX2                !
 ! A103  A(53,48,57)           111.1073         estimate D2E/DX2                !
 ! A104  A(48,49,50)           110.3961         estimate D2E/DX2                !
 ! A105  A(48,49,51)           111.4184         estimate D2E/DX2                !
 ! A106  A(48,49,52)           109.1529         estimate D2E/DX2                !
 ! A107  A(50,49,51)           109.0916         estimate D2E/DX2                !
 ! A108  A(50,49,52)           108.1791         estimate D2E/DX2                !
 ! A109  A(51,49,52)           108.5259         estimate D2E/DX2                !
 ! A110  A(48,53,54)           111.4725         estimate D2E/DX2                !
 ! A111  A(48,53,55)           110.4201         estimate D2E/DX2                !
 ! A112  A(48,53,56)           109.1277         estimate D2E/DX2                !
 ! A113  A(54,53,55)           109.1149         estimate D2E/DX2                !
 ! A114  A(54,53,56)           108.471          estimate D2E/DX2                !
 ! A115  A(55,53,56)           108.154          estimate D2E/DX2                !
 ! A116  A(48,57,58)           110.6092         estimate D2E/DX2                !
 ! A117  A(48,57,59)           110.5823         estimate D2E/DX2                !
 ! A118  A(48,57,60)           109.7871         estimate D2E/DX2                !
 ! A119  A(58,57,59)           108.6829         estimate D2E/DX2                !
 ! A120  A(58,57,60)           108.5672         estimate D2E/DX2                !
 ! A121  A(59,57,60)           108.5561         estimate D2E/DX2                !
 ! D1    D(3,1,2,4)            141.5841         estimate D2E/DX2                !
 ! D2    D(3,1,2,5)           -107.007          estimate D2E/DX2                !
 ! D3    D(3,1,2,6)             15.6647         estimate D2E/DX2                !
 ! D4    D(45,1,2,4)           -29.2663         estimate D2E/DX2                !
 ! D5    D(45,1,2,5)            82.1426         estimate D2E/DX2                !
 ! D6    D(45,1,2,6)          -155.1857         estimate D2E/DX2                !
 ! D7    D(2,1,3,7)           -149.9418         estimate D2E/DX2                !
 ! D8    D(2,1,3,8)             96.7849         estimate D2E/DX2                !
 ! D9    D(2,1,3,9)            -26.3288         estimate D2E/DX2                !
 ! D10   D(45,1,3,7)            26.1658         estimate D2E/DX2                !
 ! D11   D(45,1,3,8)           -87.1075         estimate D2E/DX2                !
 ! D12   D(45,1,3,9)           149.7788         estimate D2E/DX2                !
 ! D13   D(2,1,45,46)           -7.2608         estimate D2E/DX2                !
 ! D14   D(2,1,45,47)          114.1827         estimate D2E/DX2                !
 ! D15   D(3,1,45,46)         -179.2265         estimate D2E/DX2                !
 ! D16   D(3,1,45,47)          -57.7829         estimate D2E/DX2                !
 ! D17   D(1,2,6,10)            71.0299         estimate D2E/DX2                !
 ! D18   D(1,2,6,11)           -36.4098         estimate D2E/DX2                !
 ! D19   D(1,2,6,20)          -162.162          estimate D2E/DX2                !
 ! D20   D(4,2,6,10)           -53.6114         estimate D2E/DX2                !
 ! D21   D(4,2,6,11)          -161.0512         estimate D2E/DX2                !
 ! D22   D(4,2,6,20)            73.1966         estimate D2E/DX2                !
 ! D23   D(5,2,6,10)          -167.2598         estimate D2E/DX2                !
 ! D24   D(5,2,6,11)            85.3004         estimate D2E/DX2                !
 ! D25   D(5,2,6,20)           -40.4518         estimate D2E/DX2                !
 ! D26   D(1,3,9,11)            57.3549         estimate D2E/DX2                !
 ! D27   D(1,3,9,12)           -53.1969         estimate D2E/DX2                !
 ! D28   D(1,3,9,24)          -178.7537         estimate D2E/DX2                !
 ! D29   D(7,3,9,11)           179.1987         estimate D2E/DX2                !
 ! D30   D(7,3,9,12)            68.6468         estimate D2E/DX2                !
 ! D31   D(7,3,9,24)           -56.91           estimate D2E/DX2                !
 ! D32   D(8,3,9,11)           -65.1922         estimate D2E/DX2                !
 ! D33   D(8,3,9,12)          -175.744          estimate D2E/DX2                !
 ! D34   D(8,3,9,24)            58.6991         estimate D2E/DX2                !
 ! D35   D(2,6,10,12)          -67.8391         estimate D2E/DX2                !
 ! D36   D(2,6,10,13)           54.0942         estimate D2E/DX2                !
 ! D37   D(2,6,10,15)          175.1307         estimate D2E/DX2                !
 ! D38   D(11,6,10,12)          47.5467         estimate D2E/DX2                !
 ! D39   D(11,6,10,13)         169.48           estimate D2E/DX2                !
 ! D40   D(11,6,10,15)         -69.4836         estimate D2E/DX2                !
 ! D41   D(20,6,10,12)         167.953          estimate D2E/DX2                !
 ! D42   D(20,6,10,13)         -70.1137         estimate D2E/DX2                !
 ! D43   D(20,6,10,15)          50.9228         estimate D2E/DX2                !
 ! D44   D(2,6,11,9)            62.9062         estimate D2E/DX2                !
 ! D45   D(2,6,11,16)          -54.6975         estimate D2E/DX2                !
 ! D46   D(2,6,11,19)         -176.3505         estimate D2E/DX2                !
 ! D47   D(10,6,11,9)          -53.2845         estimate D2E/DX2                !
 ! D48   D(10,6,11,16)        -170.8882         estimate D2E/DX2                !
 ! D49   D(10,6,11,19)          67.4588         estimate D2E/DX2                !
 ! D50   D(20,6,11,9)         -173.8803         estimate D2E/DX2                !
 ! D51   D(20,6,11,16)          68.5161         estimate D2E/DX2                !
 ! D52   D(20,6,11,19)         -53.137          estimate D2E/DX2                !
 ! D53   D(2,6,20,21)          170.6957         estimate D2E/DX2                !
 ! D54   D(2,6,20,22)          -67.979          estimate D2E/DX2                !
 ! D55   D(2,6,20,23)           51.6983         estimate D2E/DX2                !
 ! D56   D(10,6,20,21)         -64.0512         estimate D2E/DX2                !
 ! D57   D(10,6,20,22)          57.2741         estimate D2E/DX2                !
 ! D58   D(10,6,20,23)         176.9514         estimate D2E/DX2                !
 ! D59   D(11,6,20,21)          46.9746         estimate D2E/DX2                !
 ! D60   D(11,6,20,22)         168.2998         estimate D2E/DX2                !
 ! D61   D(11,6,20,23)         -72.0229         estimate D2E/DX2                !
 ! D62   D(3,9,11,6)           -73.1118         estimate D2E/DX2                !
 ! D63   D(3,9,11,16)           46.4408         estimate D2E/DX2                !
 ! D64   D(3,9,11,19)          169.7769         estimate D2E/DX2                !
 ! D65   D(12,9,11,6)           39.8623         estimate D2E/DX2                !
 ! D66   D(12,9,11,16)         159.4149         estimate D2E/DX2                !
 ! D67   D(12,9,11,19)         -77.2491         estimate D2E/DX2                !
 ! D68   D(24,9,11,6)          165.9582         estimate D2E/DX2                !
 ! D69   D(24,9,11,16)         -74.4892         estimate D2E/DX2                !
 ! D70   D(24,9,11,19)          48.8468         estimate D2E/DX2                !
 ! D71   D(3,9,12,10)          101.8781         estimate D2E/DX2                !
 ! D72   D(3,9,12,17)          -16.8018         estimate D2E/DX2                !
 ! D73   D(3,9,12,18)         -137.8312         estimate D2E/DX2                !
 ! D74   D(11,9,12,10)         -10.1624         estimate D2E/DX2                !
 ! D75   D(11,9,12,17)        -128.8422         estimate D2E/DX2                !
 ! D76   D(11,9,12,18)         110.1284         estimate D2E/DX2                !
 ! D77   D(24,9,12,10)        -135.8253         estimate D2E/DX2                !
 ! D78   D(24,9,12,17)         105.4949         estimate D2E/DX2                !
 ! D79   D(24,9,12,18)         -15.5345         estimate D2E/DX2                !
 ! D80   D(3,9,24,25)          179.7963         estimate D2E/DX2                !
 ! D81   D(3,9,24,26)          -60.2893         estimate D2E/DX2                !
 ! D82   D(3,9,24,27)           59.3501         estimate D2E/DX2                !
 ! D83   D(11,9,24,25)         -61.2967         estimate D2E/DX2                !
 ! D84   D(11,9,24,26)          58.6177         estimate D2E/DX2                !
 ! D85   D(11,9,24,27)         178.2571         estimate D2E/DX2                !
 ! D86   D(12,9,24,25)          58.76           estimate D2E/DX2                !
 ! D87   D(12,9,24,26)         178.6745         estimate D2E/DX2                !
 ! D88   D(12,9,24,27)         -61.6862         estimate D2E/DX2                !
 ! D89   D(6,10,12,9)          -23.1907         estimate D2E/DX2                !
 ! D90   D(6,10,12,17)          95.6648         estimate D2E/DX2                !
 ! D91   D(6,10,12,18)        -145.0466         estimate D2E/DX2                !
 ! D92   D(13,10,12,9)        -145.3827         estimate D2E/DX2                !
 ! D93   D(13,10,12,17)        -26.5272         estimate D2E/DX2                !
 ! D94   D(13,10,12,18)         92.7614         estimate D2E/DX2                !
 ! D95   D(15,10,12,9)          94.9348         estimate D2E/DX2                !
 ! D96   D(15,10,12,17)       -146.2098         estimate D2E/DX2                !
 ! D97   D(15,10,12,18)        -26.9211         estimate D2E/DX2                !
 ! D98   D(6,10,15,14)         -65.0505         estimate D2E/DX2                !
 ! D99   D(6,10,15,28)          59.2119         estimate D2E/DX2                !
 ! D100  D(12,10,15,14)       -178.3228         estimate D2E/DX2                !
 ! D101  D(12,10,15,28)        -54.0604         estimate D2E/DX2                !
 ! D102  D(13,10,15,14)         59.0386         estimate D2E/DX2                !
 ! D103  D(13,10,15,28)       -176.699          estimate D2E/DX2                !
 ! D104  D(6,11,19,28)         -57.9262         estimate D2E/DX2                !
 ! D105  D(6,11,19,31)         122.0738         estimate D2E/DX2                !
 ! D106  D(9,11,19,28)          53.6258         estimate D2E/DX2                !
 ! D107  D(9,11,19,31)        -126.3741         estimate D2E/DX2                !
 ! D108  D(16,11,19,28)        177.8574         estimate D2E/DX2                !
 ! D109  D(16,11,19,31)         -2.1426         estimate D2E/DX2                !
 ! D110  D(10,15,28,19)        -40.3339         estimate D2E/DX2                !
 ! D111  D(10,15,28,29)         83.3954         estimate D2E/DX2                !
 ! D112  D(10,15,28,30)       -160.5305         estimate D2E/DX2                !
 ! D113  D(14,15,28,19)         82.9946         estimate D2E/DX2                !
 ! D114  D(14,15,28,29)       -153.2762         estimate D2E/DX2                !
 ! D115  D(14,15,28,30)        -37.2021         estimate D2E/DX2                !
 ! D116  D(11,19,28,15)         40.5516         estimate D2E/DX2                !
 ! D117  D(11,19,28,29)        -80.9381         estimate D2E/DX2                !
 ! D118  D(11,19,28,30)        160.6606         estimate D2E/DX2                !
 ! D119  D(31,19,28,15)       -139.4484         estimate D2E/DX2                !
 ! D120  D(31,19,28,29)         99.0618         estimate D2E/DX2                !
 ! D121  D(31,19,28,30)        -19.3395         estimate D2E/DX2                !
 ! D122  D(11,19,31,32)       -147.6735         estimate D2E/DX2                !
 ! D123  D(11,19,31,33)        -32.2045         estimate D2E/DX2                !
 ! D124  D(11,19,31,34)         90.061          estimate D2E/DX2                !
 ! D125  D(28,19,31,32)         32.3265         estimate D2E/DX2                !
 ! D126  D(28,19,31,33)        147.7955         estimate D2E/DX2                !
 ! D127  D(28,19,31,34)        -89.939          estimate D2E/DX2                !
 ! D128  D(19,31,34,35)         90.0            estimate D2E/DX2                !
 ! D129  D(19,31,34,36)        -90.0            estimate D2E/DX2                !
 ! D130  D(32,31,34,35)        -32.3178         estimate D2E/DX2                !
 ! D131  D(32,31,34,36)        147.6821         estimate D2E/DX2                !
 ! D132  D(33,31,34,35)       -147.6821         estimate D2E/DX2                !
 ! D133  D(33,31,34,36)         32.3178         estimate D2E/DX2                !
 ! D134  D(31,34,35,37)        180.0            estimate D2E/DX2                !
 ! D135  D(31,34,35,40)          0.0            estimate D2E/DX2                !
 ! D136  D(36,34,35,37)          0.0            estimate D2E/DX2                !
 ! D137  D(36,34,35,40)        180.0            estimate D2E/DX2                !
 ! D138  D(31,34,36,38)        180.0            estimate D2E/DX2                !
 ! D139  D(31,34,36,41)          0.0            estimate D2E/DX2                !
 ! D140  D(35,34,36,38)          0.0            estimate D2E/DX2                !
 ! D141  D(35,34,36,41)       -180.0            estimate D2E/DX2                !
 ! D142  D(34,35,37,39)          0.0            estimate D2E/DX2                !
 ! D143  D(34,35,37,42)        180.0            estimate D2E/DX2                !
 ! D144  D(40,35,37,39)       -180.0            estimate D2E/DX2                !
 ! D145  D(40,35,37,42)          0.0            estimate D2E/DX2                !
 ! D146  D(34,36,38,39)          0.0001         estimate D2E/DX2                !
 ! D147  D(34,36,38,43)        180.0            estimate D2E/DX2                !
 ! D148  D(41,36,38,39)       -180.0            estimate D2E/DX2                !
 ! D149  D(41,36,38,43)         -0.0001         estimate D2E/DX2                !
 ! D150  D(35,37,39,38)          0.0            estimate D2E/DX2                !
 ! D151  D(35,37,39,44)        180.0            estimate D2E/DX2                !
 ! D152  D(42,37,39,38)       -180.0            estimate D2E/DX2                !
 ! D153  D(42,37,39,44)          0.0            estimate D2E/DX2                !
 ! D154  D(36,38,39,37)          0.0            estimate D2E/DX2                !
 ! D155  D(36,38,39,44)        180.0            estimate D2E/DX2                !
 ! D156  D(43,38,39,37)       -179.9999         estimate D2E/DX2                !
 ! D157  D(43,38,39,44)          0.0001         estimate D2E/DX2                !
 ! D158  D(1,45,47,48)        -105.1439         estimate D2E/DX2                !
 ! D159  D(46,45,47,48)         17.59           estimate D2E/DX2                !
 ! D160  D(45,47,48,49)        -62.5569         estimate D2E/DX2                !
 ! D161  D(45,47,48,53)         61.3054         estimate D2E/DX2                !
 ! D162  D(45,47,48,57)        179.4045         estimate D2E/DX2                !
 ! D163  D(47,48,49,50)        -54.8116         estimate D2E/DX2                !
 ! D164  D(47,48,49,51)         66.5674         estimate D2E/DX2                !
 ! D165  D(47,48,49,52)       -173.595          estimate D2E/DX2                !
 ! D166  D(53,48,49,50)       -176.7808         estimate D2E/DX2                !
 ! D167  D(53,48,49,51)        -55.4018         estimate D2E/DX2                !
 ! D168  D(53,48,49,52)         64.4358         estimate D2E/DX2                !
 ! D169  D(57,48,49,50)         57.8054         estimate D2E/DX2                !
 ! D170  D(57,48,49,51)        179.1843         estimate D2E/DX2                !
 ! D171  D(57,48,49,52)        -60.978          estimate D2E/DX2                !
 ! D172  D(47,48,53,54)        -66.7053         estimate D2E/DX2                !
 ! D173  D(47,48,53,55)         54.7564         estimate D2E/DX2                !
 ! D174  D(47,48,53,56)        173.5079         estimate D2E/DX2                !
 ! D175  D(49,48,53,54)         55.1838         estimate D2E/DX2                !
 ! D176  D(49,48,53,55)        176.6454         estimate D2E/DX2                !
 ! D177  D(49,48,53,56)        -64.603          estimate D2E/DX2                !
 ! D178  D(57,48,53,54)       -179.4014         estimate D2E/DX2                !
 ! D179  D(57,48,53,55)        -57.9397         estimate D2E/DX2                !
 ! D180  D(57,48,53,56)         60.8118         estimate D2E/DX2                !
 ! D181  D(47,48,57,58)        -60.4274         estimate D2E/DX2                !
 ! D182  D(47,48,57,59)         60.0226         estimate D2E/DX2                !
 ! D183  D(47,48,57,60)        179.7823         estimate D2E/DX2                !
 ! D184  D(49,48,57,58)       -177.207          estimate D2E/DX2                !
 ! D185  D(49,48,57,59)        -56.7571         estimate D2E/DX2                !
 ! D186  D(49,48,57,60)         63.0026         estimate D2E/DX2                !
 ! D187  D(53,48,57,58)         56.5161         estimate D2E/DX2                !
 ! D188  D(53,48,57,59)        176.966          estimate D2E/DX2                !
 ! D189  D(53,48,57,60)        -63.2743         estimate D2E/DX2                !
 --------------------------------------------------------------------------------
 Trust Radius=3.00D-01 FncErr=1.00D-07 GrdErr=1.00D-06 EigMax=2.50D+02 EigMin=1.00D-04
 Number of steps in this run=    360 maximum allowed number of steps=    360.
 GradGradGradGradGradGradGradGradGradGradGradGradGradGradGradGradGradGrad

 Leave Link  103 at Fri Mar 12 18:52:57 2021, MaxMem=  2684354560 cpu:               1.4 elap:               0.1
 (Enter /opt/g16avx/l202.exe)
 Stoichiometry    C22H33N3O2
 Framework group  C1[X(C22H33N3O2)]
 Deg. of freedom   174
 Full point group                 C1      NOp   1
 Largest Abelian subgroup         C1      NOp   1
 Largest concise Abelian subgroup C1      NOp   1
                         Standard orientation:                         
 ---------------------------------------------------------------------
 Center     Atomic      Atomic             Coordinates (Angstroms)
 Number     Number       Type             X           Y           Z
 ---------------------------------------------------------------------
      1          7           0        1.856558    0.336070   -0.997595
      2          6           0        1.306633    1.607247   -1.231152
      3          6           0        1.035020   -0.665005   -0.450739
      4          1           0        2.078850    2.347908   -0.973963
      5          1           0        1.188895    1.695910   -2.326509
      6          6           0       -0.031185    1.994138   -0.571310
      7          1           0        1.681227   -1.330100    0.138565
      8          1           0        0.648857   -1.288933   -1.276810
      9          6           0       -0.142940   -0.158699    0.404186
     10          6           0        0.134240    2.203860    0.953550
     11          6           0       -0.967848    0.777899   -0.514966
     12          6           0        0.439598    0.791223    1.473741
     13          1           0        0.920414    2.922382    1.202825
     14          1           0       -1.318312    3.598950    1.183734
     15          7           0       -1.102978    2.678338    1.548433
     16          1           0       -1.127209    0.314138   -1.488447
     17          1           0        1.516456    0.648219    1.564302
     18          1           0       -0.003495    0.643427    2.456627
     19          7           0       -2.248450    1.176746    0.027573
     20          6           0       -0.626069    3.194410   -1.301817
     21          1           0       -1.642978    3.393314   -0.969957
     22          1           0       -0.016554    4.081430   -1.135325
     23          1           0       -0.665123    3.001720   -2.372651
     24          6           0       -0.923555   -1.344133    0.953510
     25          1           0       -1.762130   -1.024690    1.566081
     26          1           0       -1.317188   -1.946576    0.136433
     27          1           0       -0.273106   -1.969981    1.561971
     28          6           0       -2.211552    1.772521    1.354652
     29          1           0       -2.150751    1.003169    2.141019
     30          1           0       -3.139070    2.331776    1.506100
     31          6           0       -3.504595    0.992198   -0.713335
     32          1           0       -4.200316    1.804222   -0.456997
     33          1           0       -3.308996    1.092113   -1.790776
     34          6           0       -4.186574   -0.362407   -0.445850
     35          6           0       -5.118532   -0.508985    0.595446
     36          6           0       -3.894532   -1.486886   -1.236160
     37          6           0       -5.735956   -1.734904    0.837793
     38          6           0       -4.511626   -2.713069   -0.994306
     39          6           0       -5.435398   -2.842925    0.043961
     40          1           0       -5.359542    0.346416    1.218880
     41          1           0       -3.177547   -1.396864   -2.046279
     42          1           0       -6.453338   -1.824460    1.648565
     43          1           0       -4.270113   -3.568722   -1.618434
     44          1           0       -5.916326   -3.798186    0.232591
     45          6           0        2.970576   -0.663718   -0.900713
     46          8           0        3.906817   -0.044548   -1.321195
     47          8           0        3.625044   -1.424454   -0.062445
     48          6           0        4.984599   -1.082955    0.382948
     49          6           0        5.921012   -1.079465   -0.815229
     50          1           0        5.867420   -2.041220   -1.346476
     51          1           0        5.675221   -0.269604   -1.513483
     52          1           0        6.953618   -0.937842   -0.465580
     53          6           0        4.959450    0.252008    1.110715
     54          1           0        4.708451    1.075601    0.430545
     55          1           0        4.228185    0.227616    1.932139
     56          1           0        5.952101    0.446229    1.541463
     57          6           0        5.318290   -2.218393    1.334563
     58          1           0        4.606025   -2.243635    2.171828
     59          1           0        5.281238   -3.184756    0.811368
     60          1           0        6.330007   -2.078801    1.739962
 ---------------------------------------------------------------------
 Rotational constants (GHZ):           0.3664801           0.1035832           0.0918319
 Leave Link  202 at Fri Mar 12 18:52:57 2021, MaxMem=  2684354560 cpu:               2.0 elap:               0.1
 (Enter /opt/g16avx/l301.exe)
 Standard basis: def2SVP (5D, 7F)
 Ernie: Thresh=  0.10000D-02 Tol=  0.10000D-05 Strict=F.
 There are   570 symmetry adapted cartesian basis functions of A   symmetry.
 There are   543 symmetry adapted basis functions of A   symmetry.
   543 basis functions,   906 primitive gaussians,   570 cartesian basis functions
   101 alpha electrons      101 beta electrons
       nuclear repulsion energy      2718.1680607939 Hartrees.
 IExCor= 1009 DFT=T Ex+Corr=PBE1PBE ExCW=0 ScaHFX=  0.250000
 ScaDFX=  0.750000  0.750000  1.000000  1.000000 ScalE2=  1.000000  1.000000
 IRadAn=      5 IRanWt=     -1 IRanGd=            0 ICorTp=0 IEmpDi=141
 NAtoms=   60 NActive=   60 NUniq=   60 SFac= 1.00D+00 NAtFMM=   60 NAOKFM=T Big=T
 Integral buffers will be    131072 words long.
 Raffenetti 2 integral format.
 Two-electron integral symmetry is turned on.
 R6Disp:  Grimme-D3(BJ) Dispersion energy=       -0.0739442780 Hartrees.
 Nuclear repulsion after empirical dispersion term =     2718.0941165159 Hartrees.
 ------------------------------------------------------------------------------
 Polarizable Continuum Model (PCM)
 =================================
 Model                : PCM.
 Atomic radii         : SMD-Coulomb.
 Polarization charges : Total charges.
 Charge compensation  : None.
 Solution method      : On-the-fly selection.
 Cavity type          : VdW (van der Waals Surface) (Alpha=1.000).
 Cavity algorithm     : GePol (No added spheres)
                        Default sphere list used, NSphG=   60.
                        Lebedev-Laikov grids with approx.  5.0 points / Ang**2.
                        Smoothing algorithm: York/Karplus (Gamma=1.0000).
                        Polarization charges: spherical gaussians, with
                                              point-specific exponents (IZeta= 3).
                        Self-potential: point-specific (ISelfS= 7).
                        Self-field    : sphere-specific E.n sum rule (ISelfD= 2).
 1st derivatives      : Analytical E(r).r(x)/FMM algorithm (CHGder, D1EAlg=3).
                        Cavity 1st derivative terms included.
 Solvent              : Water, Eps=  78.355300 Eps(inf)=   1.777849
 ------------------------------------------------------------------------------
 GePol: Number of generator spheres                  =      60
 GePol: Total number of spheres                      =      60
 GePol: Number of exposed spheres                    =      60 (100.00%)
 GePol: Number of points                             =    3761
 GePol: Average weight of points                     =       0.11
 GePol: Minimum weight of points                     =   0.28D-09
 GePol: Maximum weight of points                     =    0.21991
 GePol: Number of points with low weight             =     242
 GePol: Fraction of low-weight points (<1% of avg)   =       6.43%
 GePol: Cavity surface area                          =    409.713 Ang**2
 GePol: Cavity volume                                =    390.036 Ang**3
 ------------------------------------------------------------------------------
 Atomic radii for non-electrostatic terms: SMD-CDS.
 ------------------------------------------------------------------------------
 PCM non-electrostatic energy =         0.0098779340 Hartrees.
 Nuclear repulsion after PCM non-electrostatic terms =     2718.1039944499 Hartrees.
 Leave Link  301 at Fri Mar 12 18:52:57 2021, MaxMem=  2684354560 cpu:               4.7 elap:               0.3
 (Enter /opt/g16avx/l302.exe)
 NPDir=0 NMtPBC=     1 NCelOv=     1 NCel=       1 NClECP=     1 NCelD=      1
         NCelK=      1 NCelE2=     1 NClLst=     1 CellRange=     0.0.
 One-electron integrals computed using PRISM.
 One-electron integral symmetry used in STVInt
   1 Symmetry operations used in ECPInt.
 ECPInt:  NShTT=   34191 NPrTT=  120255 LenC2=   29576 LenP2D=   71652.
 LDataN:  DoStor=T MaxTD1= 4 Len=   56
 NBasis=   543 RedAO= T EigKep=  2.90D-04  NBF=   543
 NBsUse=   543 1.00D-06 EigRej= -1.00D+00 NBFU=   543
 Precomputing XC quadrature grid using
 IXCGrd= 4 IRadAn=           5 IRanWt=          -1 IRanGd=           0 AccXCQ= 0.00D+00.
 Generated NRdTot=       0 NPtTot=           0 NUsed=           0 NTot=          32
 NSgBfM=   564   564   564   564   564 MxSgAt=    60 MxSgA2=    60.
 Leave Link  302 at Fri Mar 12 18:53:04 2021, MaxMem=  2684354560 cpu:             111.8 elap:               6.9
 (Enter /opt/g16avx/l303.exe)
 DipDrv:  MaxL=1.
 Leave Link  303 at Fri Mar 12 18:53:05 2021, MaxMem=  2684354560 cpu:               6.6 elap:               0.4
 (Enter /opt/g16avx/l401.exe)
 ExpMin= 1.22D-01 ExpMax= 2.27D+03 ExpMxC= 3.41D+02 IAcc=3 IRadAn=         5 AccDes= 0.00D+00
 Harris functional with IExCor= 1009 and IRadAn=       5 diagonalized for initial guess.
 HarFok:  IExCor= 1009 AccDes= 0.00D+00 IRadAn=         5 IDoV= 1 UseB2=F ITyADJ=14
 ICtDFT=  3500011 ScaDFX=  1.000000  1.000000  1.000000  1.000000
 FoFCou: FMM=F IPFlag=           0 FMFlag=      100000 FMFlg1=        2001
         NFxFlg=           0 DoJE=T BraDBF=F KetDBF=T FulRan=T
         wScrn=  0.000000 ICntrl=       500 IOpCl=  0 I1Cent=   200000004 NGrid=           0
         NMat0=    1 NMatS0=      1 NMatT0=    0 NMatD0=    1 NMtDS0=    0 NMtDT0=    0
 Petite list used in FoFCou.
 Harris En= -1170.86745470530    
 JPrj=0 DoOrth=F DoCkMO=F.
 Leave Link  401 at Fri Mar 12 18:53:13 2021, MaxMem=  2684354560 cpu:             127.9 elap:               8.0
 (Enter /opt/g16avx/l502.exe)
 Integral symmetry usage will be decided dynamically.
 Closed shell SCF:
 Using DIIS extrapolation, IDIIS=  1040.
 NGot=  2684354560 LenX=  2683687104 LenY=  2683361634
 Requested convergence on RMS density matrix=1.00D-08 within 128 cycles.
 Requested convergence on MAX density matrix=1.00D-06.
 Requested convergence on             energy=1.00D-06.
 No special actions if energy rises.
 Fock matrices will be formed incrementally for  20 cycles.

 Cycle   1  Pass 1  IDiag  1:
 FoFJK:  IHMeth= 1 ICntrl=       0 DoSepK=F KAlg= 0 I1Cent=           0 FoldK=F
 IRaf= 990000000 NMat=       1 IRICut=       1 DoRegI=T DoRafI=F ISym2E= 0 IDoP0=0 IntGTp=1.
 FoFCou: FMM=T IPFlag=           0 FMFlag=      100000 FMFlg1=        2001
         NFxFlg=           0 DoJE=F BraDBF=F KetDBF=F FulRan=T
         wScrn=  0.000000 ICntrl=         0 IOpCl=  0 I1Cent=           0 NGrid=           0
         NMat0=    1 NMatS0=      1 NMatT0=    0 NMatD0=    1 NMtDS0=    0 NMtDT0=    0
 Symmetry not used in FoFCou.
 FMM levels:  10  Number of levels for PrismC:   9
 Inv3:  Mode=1 IEnd=    42435363.
 Iteration    1 A*A^-1 deviation from unit magnitude is 3.55D-15 for    215.
 Iteration    1 A*A^-1 deviation from orthogonality  is 2.94D-15 for   1810   1000.
 Iteration    1 A^-1*A deviation from unit magnitude is 3.77D-15 for    591.
 Iteration    1 A^-1*A deviation from orthogonality  is 1.54D-11 for   2731   2729.
 E= -1169.90623421236    
 DIIS: error= 2.20D-02 at cycle   1 NSaved=   1.
 NSaved= 1 IEnMin= 1 EnMin= -1169.90623421236     IErMin= 1 ErrMin= 2.20D-02
 ErrMax= 2.20D-02  0.00D+00 EMaxC= 1.00D-01 BMatC= 6.29D-01 BMatP= 6.29D-01
 IDIUse=3 WtCom= 7.80D-01 WtEn= 2.20D-01
 Coeff-Com:  0.100D+01
 Coeff-En:   0.100D+01
 Coeff:      0.100D+01
 Gap=     0.055 Goal=   None    Shift=    0.000
 GapD=    0.055 DampG=0.500 DampE=0.500 DampFc=0.2500 IDamp=-1.
 Damping current iteration by 2.50D-01
 RMSDP=4.01D-03 MaxDP=2.33D-01              OVMax= 3.16D-01

 Cycle   2  Pass 1  IDiag  1:
 RMSU=  9.87D-04    CP:  9.87D-01
 E= -1170.13567273784     Delta-E=       -0.229438525484 Rises=F Damp=T
 DIIS: error= 1.27D-02 at cycle   2 NSaved=   2.
 NSaved= 2 IEnMin= 2 EnMin= -1170.13567273784     IErMin= 2 ErrMin= 1.27D-02
 ErrMax= 1.27D-02  0.00D+00 EMaxC= 1.00D-01 BMatC= 1.55D-01 BMatP= 6.29D-01
 IDIUse=3 WtCom= 8.73D-01 WtEn= 1.27D-01
 Coeff-Com: -0.757D+00 0.176D+01
 Coeff-En:   0.000D+00 0.100D+01
 Coeff:     -0.661D+00 0.166D+01
 Gap=     0.177 Goal=   None    Shift=    0.000
 RMSDP=1.56D-03 MaxDP=5.95D-02 DE=-2.29D-01 OVMax= 2.07D-01

 Cycle   3  Pass 1  IDiag  1:
 RMSU=  1.31D-03    CP:  9.63D-01  1.78D+00
 E= -1170.50256357056     Delta-E=       -0.366890832720 Rises=F Damp=F
 DIIS: error= 8.78D-03 at cycle   3 NSaved=   3.
 NSaved= 3 IEnMin= 3 EnMin= -1170.50256357056     IErMin= 3 ErrMin= 8.78D-03
 ErrMax= 8.78D-03  0.00D+00 EMaxC= 1.00D-01 BMatC= 5.85D-02 BMatP= 1.55D-01
 IDIUse=3 WtCom= 9.12D-01 WtEn= 8.78D-02
 Coeff-Com: -0.453D+00 0.980D+00 0.473D+00
 Coeff-En:   0.000D+00 0.000D+00 0.100D+01
 Coeff:     -0.413D+00 0.894D+00 0.519D+00
 Gap=     0.133 Goal=   None    Shift=    0.000
 RMSDP=5.91D-04 MaxDP=5.85D-02 DE=-3.67D-01 OVMax= 8.05D-02

 Cycle   4  Pass 1  IDiag  1:
 RMSU=  4.69D-04    CP:  9.67D-01  1.85D+00  7.32D-01
 E= -1170.54638507408     Delta-E=       -0.043821503511 Rises=F Damp=F
 DIIS: error= 2.75D-03 at cycle   4 NSaved=   4.
 NSaved= 4 IEnMin= 4 EnMin= -1170.54638507408     IErMin= 4 ErrMin= 2.75D-03
 ErrMax= 2.75D-03  0.00D+00 EMaxC= 1.00D-01 BMatC= 6.40D-03 BMatP= 5.85D-02
 IDIUse=3 WtCom= 9.72D-01 WtEn= 2.75D-02
 Coeff-Com: -0.946D-01 0.191D+00 0.260D+00 0.643D+00
 Coeff-En:   0.000D+00 0.000D+00 0.648D-01 0.935D+00
 Coeff:     -0.920D-01 0.186D+00 0.255D+00 0.651D+00
 Gap=     0.133 Goal=   None    Shift=    0.000
 RMSDP=2.27D-04 MaxDP=1.74D-02 DE=-4.38D-02 OVMax= 3.28D-02

 Cycle   5  Pass 1  IDiag  1:
 RMSU=  1.48D-04    CP:  9.66D-01  1.82D+00  7.67D-01  6.53D-01
 E= -1170.55091718991     Delta-E=       -0.004532115838 Rises=F Damp=F
 DIIS: error= 8.13D-04 at cycle   5 NSaved=   5.
 NSaved= 5 IEnMin= 5 EnMin= -1170.55091718991     IErMin= 5 ErrMin= 8.13D-04
 ErrMax= 8.13D-04  0.00D+00 EMaxC= 1.00D-01 BMatC= 8.44D-04 BMatP= 6.40D-03
 IDIUse=3 WtCom= 9.92D-01 WtEn= 8.13D-03
 Coeff-Com: -0.243D-01 0.425D-01 0.105D+00 0.375D+00 0.503D+00
 Coeff-En:   0.000D+00 0.000D+00 0.000D+00 0.770D-01 0.923D+00
 Coeff:     -0.241D-01 0.422D-01 0.104D+00 0.372D+00 0.506D+00
 Gap=     0.136 Goal=   None    Shift=    0.000
 RMSDP=7.76D-05 MaxDP=5.75D-03 DE=-4.53D-03 OVMax= 1.16D-02

 Cycle   6  Pass 1  IDiag  1:
 RMSU=  3.60D-05    CP:  9.66D-01  1.83D+00  7.70D-01  7.32D-01  6.14D-01
 E= -1170.55161277334     Delta-E=       -0.000695583431 Rises=F Damp=F
 DIIS: error= 2.26D-04 at cycle   6 NSaved=   6.
 NSaved= 6 IEnMin= 6 EnMin= -1170.55161277334     IErMin= 6 ErrMin= 2.26D-04
 ErrMax= 2.26D-04  0.00D+00 EMaxC= 1.00D-01 BMatC= 4.74D-05 BMatP= 8.44D-04
 IDIUse=3 WtCom= 9.98D-01 WtEn= 2.26D-03
 Coeff-Com: -0.374D-02 0.345D-02 0.223D-01 0.114D+00 0.253D+00 0.611D+00
 Coeff-En:   0.000D+00 0.000D+00 0.000D+00 0.000D+00 0.000D+00 0.100D+01
 Coeff:     -0.373D-02 0.344D-02 0.223D-01 0.114D+00 0.252D+00 0.612D+00
 Gap=     0.136 Goal=   None    Shift=    0.000
 RMSDP=1.79D-05 MaxDP=1.65D-03 DE=-6.96D-04 OVMax= 2.16D-03

 Cycle   7  Pass 1  IDiag  1:
 RMSU=  1.23D-05    CP:  9.66D-01  1.83D+00  7.72D-01  7.30D-01  6.41D-01
                    CP:  6.65D-01
 E= -1170.55165133038     Delta-E=       -0.000038557034 Rises=F Damp=F
 DIIS: error= 6.24D-05 at cycle   7 NSaved=   7.
 NSaved= 7 IEnMin= 7 EnMin= -1170.55165133038     IErMin= 7 ErrMin= 6.24D-05
 ErrMax= 6.24D-05  0.00D+00 EMaxC= 1.00D-01 BMatC= 4.55D-06 BMatP= 4.74D-05
 IDIUse=1 WtCom= 1.00D+00 WtEn= 0.00D+00
 Coeff-Com: -0.107D-02 0.105D-03 0.585D-02 0.398D-01 0.109D+00 0.337D+00
 Coeff-Com:  0.510D+00
 Coeff:     -0.107D-02 0.105D-03 0.585D-02 0.398D-01 0.109D+00 0.337D+00
 Coeff:      0.510D+00
 Gap=     0.136 Goal=   None    Shift=    0.000
 RMSDP=5.52D-06 MaxDP=4.15D-04 DE=-3.86D-05 OVMax= 4.79D-04

 Cycle   8  Pass 1  IDiag  1:
 RMSU=  3.80D-06    CP:  9.66D-01  1.83D+00  7.72D-01  7.31D-01  6.47D-01
                    CP:  7.17D-01  7.26D-01
 E= -1170.55165509314     Delta-E=       -0.000003762760 Rises=F Damp=F
 DIIS: error= 1.65D-05 at cycle   8 NSaved=   8.
 NSaved= 8 IEnMin= 8 EnMin= -1170.55165509314     IErMin= 8 ErrMin= 1.65D-05
 ErrMax= 1.65D-05  0.00D+00 EMaxC= 1.00D-01 BMatC= 2.42D-07 BMatP= 4.55D-06
 IDIUse=1 WtCom= 1.00D+00 WtEn= 0.00D+00
 Coeff-Com: -0.267D-03 0.137D-04-0.914D-04 0.405D-02 0.181D-01 0.751D-01
 Coeff-Com:  0.219D+00 0.684D+00
 Coeff:     -0.267D-03 0.137D-04-0.914D-04 0.405D-02 0.181D-01 0.751D-01
 Coeff:      0.219D+00 0.684D+00
 Gap=     0.136 Goal=   None    Shift=    0.000
 RMSDP=1.35D-06 MaxDP=9.79D-05 DE=-3.76D-06 OVMax= 1.22D-04

 Cycle   9  Pass 1  IDiag  1:
 RMSU=  1.10D-06    CP:  9.66D-01  1.83D+00  7.72D-01  7.31D-01  6.49D-01
                    CP:  7.21D-01  7.69D-01  9.12D-01
 E= -1170.55165527653     Delta-E=       -0.000000183393 Rises=F Damp=F
 DIIS: error= 6.22D-06 at cycle   9 NSaved=   9.
 NSaved= 9 IEnMin= 9 EnMin= -1170.55165527653     IErMin= 9 ErrMin= 6.22D-06
 ErrMax= 6.22D-06  0.00D+00 EMaxC= 1.00D-01 BMatC= 3.70D-08 BMatP= 2.42D-07
 IDIUse=1 WtCom= 1.00D+00 WtEn= 0.00D+00
 Coeff-Com: -0.595D-04 0.377D-04-0.773D-03-0.237D-02-0.280D-02 0.866D-03
 Coeff-Com:  0.527D-01 0.338D+00 0.614D+00
 Coeff:     -0.595D-04 0.377D-04-0.773D-03-0.237D-02-0.280D-02 0.866D-03
 Coeff:      0.527D-01 0.338D+00 0.614D+00
 Gap=     0.136 Goal=   None    Shift=    0.000
 RMSDP=5.36D-07 MaxDP=3.35D-05 DE=-1.83D-07 OVMax= 4.32D-05

 Cycle  10  Pass 1  IDiag  1:
 RMSU=  3.20D-07    CP:  9.66D-01  1.83D+00  7.72D-01  7.31D-01  6.49D-01
                    CP:  7.24D-01  7.86D-01  9.55D-01  7.49D-01
 E= -1170.55165530906     Delta-E=       -0.000000032526 Rises=F Damp=F
 DIIS: error= 1.13D-06 at cycle  10 NSaved=  10.
 NSaved=10 IEnMin=10 EnMin= -1170.55165530906     IErMin=10 ErrMin= 1.13D-06
 ErrMax= 1.13D-06  0.00D+00 EMaxC= 1.00D-01 BMatC= 1.90D-09 BMatP= 3.70D-08
 IDIUse=1 WtCom= 1.00D+00 WtEn= 0.00D+00
 Coeff-Com: -0.335D-04 0.532D-04-0.311D-03-0.110D-02-0.219D-02-0.429D-02
 Coeff-Com:  0.605D-02 0.809D-01 0.227D+00 0.694D+00
 Coeff:     -0.335D-04 0.532D-04-0.311D-03-0.110D-02-0.219D-02-0.429D-02
 Coeff:      0.605D-02 0.809D-01 0.227D+00 0.694D+00
 Gap=     0.136 Goal=   None    Shift=    0.000
 RMSDP=1.41D-07 MaxDP=6.79D-06 DE=-3.25D-08 OVMax= 1.55D-05

 Cycle  11  Pass 1  IDiag  1:
 RMSU=  1.04D-07    CP:  9.66D-01  1.83D+00  7.72D-01  7.31D-01  6.49D-01
                    CP:  7.25D-01  7.89D-01  9.72D-01  7.96D-01  9.66D-01
 E= -1170.55165531063     Delta-E=       -0.000000001577 Rises=F Damp=F
 DIIS: error= 4.53D-07 at cycle  11 NSaved=  11.
 NSaved=11 IEnMin=11 EnMin= -1170.55165531063     IErMin=11 ErrMin= 4.53D-07
 ErrMax= 4.53D-07  0.00D+00 EMaxC= 1.00D-01 BMatC= 3.93D-10 BMatP= 1.90D-09
 IDIUse=1 WtCom= 1.00D+00 WtEn= 0.00D+00
 Coeff-Com: -0.181D-04 0.326D-04-0.873D-04-0.293D-03-0.881D-03-0.236D-02
 Coeff-Com: -0.260D-02 0.349D-02 0.474D-01 0.349D+00 0.607D+00
 Coeff:     -0.181D-04 0.326D-04-0.873D-04-0.293D-03-0.881D-03-0.236D-02
 Coeff:     -0.260D-02 0.349D-02 0.474D-01 0.349D+00 0.607D+00
 Gap=     0.136 Goal=   None    Shift=    0.000
 RMSDP=6.26D-08 MaxDP=3.34D-06 DE=-1.58D-09 OVMax= 6.64D-06

 Cycle  12  Pass 1  IDiag  1:
 RMSU=  4.03D-08    CP:  9.66D-01  1.83D+00  7.72D-01  7.31D-01  6.49D-01
                    CP:  7.25D-01  7.90D-01  9.76D-01  8.11D-01  1.05D+00
                    CP:  9.28D-01
 E= -1170.55165531100     Delta-E=       -0.000000000362 Rises=F Damp=F
 DIIS: error= 1.66D-07 at cycle  12 NSaved=  12.
 NSaved=12 IEnMin=12 EnMin= -1170.55165531100     IErMin=12 ErrMin= 1.66D-07
 ErrMax= 1.66D-07  0.00D+00 EMaxC= 1.00D-01 BMatC= 3.26D-11 BMatP= 3.93D-10
 IDIUse=1 WtCom= 1.00D+00 WtEn= 0.00D+00
 Coeff-Com: -0.509D-05 0.833D-05 0.473D-05 0.561D-04-0.228D-04-0.149D-03
 Coeff-Com: -0.136D-02-0.964D-02-0.142D-01 0.203D-01 0.186D+00 0.819D+00
 Coeff:     -0.509D-05 0.833D-05 0.473D-05 0.561D-04-0.228D-04-0.149D-03
 Coeff:     -0.136D-02-0.964D-02-0.142D-01 0.203D-01 0.186D+00 0.819D+00
 Gap=     0.136 Goal=   None    Shift=    0.000
 RMSDP=2.82D-08 MaxDP=1.42D-06 DE=-3.62D-10 OVMax= 4.93D-06

 Cycle  13  Pass 1  IDiag  1:
 RMSU=  1.24D-08    CP:  9.66D-01  1.83D+00  7.72D-01  7.31D-01  6.49D-01
                    CP:  7.25D-01  7.91D-01  9.78D-01  8.15D-01  1.10D+00
                    CP:  1.06D+00  1.10D+00
 E= -1170.55165531103     Delta-E=       -0.000000000034 Rises=F Damp=F
 DIIS: error= 4.73D-08 at cycle  13 NSaved=  13.
 NSaved=13 IEnMin=13 EnMin= -1170.55165531103     IErMin=13 ErrMin= 4.73D-08
 ErrMax= 4.73D-08  0.00D+00 EMaxC= 1.00D-01 BMatC= 3.61D-12 BMatP= 3.26D-11
 IDIUse=1 WtCom= 1.00D+00 WtEn= 0.00D+00
 Coeff-Com: -0.110D-05 0.132D-05 0.881D-05 0.527D-04 0.613D-04 0.139D-03
 Coeff-Com: -0.319D-03-0.464D-02-0.103D-01-0.237D-01 0.279D-01 0.350D+00
 Coeff-Com:  0.661D+00
 Coeff:     -0.110D-05 0.132D-05 0.881D-05 0.527D-04 0.613D-04 0.139D-03
 Coeff:     -0.319D-03-0.464D-02-0.103D-01-0.237D-01 0.279D-01 0.350D+00
 Coeff:      0.661D+00
 Gap=     0.136 Goal=   None    Shift=    0.000
 RMSDP=9.48D-09 MaxDP=4.82D-07 DE=-3.37D-11 OVMax= 1.82D-06

 Error on total polarization charges =  0.06587
 SCF Done:  E(RPBE1PBE) =  -1170.55165531     A.U. after   13 cycles
            NFock= 13  Conv=0.95D-08     -V/T= 2.0098
 KE= 1.159219551601D+03 PE=-8.154853024901D+03 EE= 3.106977823539D+03
 SMD-CDS (non-electrostatic) energy       (kcal/mol) =       6.20
 (included in total energy above)
 Leave Link  502 at Fri Mar 12 18:57:05 2021, MaxMem=  2684354560 cpu:            4525.0 elap:             232.1
 (Enter /opt/g16avx/l601.exe)
 Copying SCF densities to generalized density rwf, IOpCl= 0 IROHF=0.

 **********************************************************************

            Population analysis using the SCF density.

 **********************************************************************

 Orbital symmetries:
       Occupied  (A) (A) (A) (A) (A) (A) (A) (A) (A) (A) (A) (A)
                 (A) (A) (A) (A) (A) (A) (A) (A) (A) (A) (A) (A)
                 (A) (A) (A) (A) (A) (A) (A) (A) (A) (A) (A) (A)
                 (A) (A) (A) (A) (A) (A) (A) (A) (A) (A) (A) (A)
                 (A) (A) (A) (A) (A) (A) (A) (A) (A) (A) (A) (A)
                 (A) (A) (A) (A) (A) (A) (A) (A) (A) (A) (A) (A)
                 (A) (A) (A) (A) (A) (A) (A) (A) (A) (A) (A) (A)
                 (A) (A) (A) (A) (A) (A) (A) (A) (A) (A) (A) (A)
                 (A) (A) (A) (A) (A)
       Virtual   (A) (A) (A) (A) (A) (A) (A) (A) (A) (A) (A) (A)
                 (A) (A) (A) (A) (A) (A) (A) (A) (A) (A) (A) (A)
                 (A) (A) (A) (A) (A) (A) (A) (A) (A) (A) (A) (A)
                 (A) (A) (A) (A) (A) (A) (A) (A) (A) (A) (A) (A)
                 (A) (A) (A) (A) (A) (A) (A) (A) (A) (A) (A) (A)
                 (A) (A) (A) (A) (A) (A) (A) (A) (A) (A) (A) (A)
                 (A) (A) (A) (A) (A) (A) (A) (A) (A) (A) (A) (A)
                 (A) (A) (A) (A) (A) (A) (A) (A) (A) (A) (A) (A)
                 (A) (A) (A) (A) (A) (A) (A) (A) (A) (A) (A) (A)
                 (A) (A) (A) (A) (A) (A) (A) (A) (A) (A) (A) (A)
                 (A) (A) (A) (A) (A) (A) (A) (A) (A) (A) (A) (A)
                 (A) (A) (A) (A) (A) (A) (A) (A) (A) (A) (A) (A)
                 (A) (A) (A) (A) (A) (A) (A) (A) (A) (A) (A) (A)
                 (A) (A) (A) (A) (A) (A) (A) (A) (A) (A) (A) (A)
                 (A) (A) (A) (A) (A) (A) (A) (A) (A) (A) (A) (A)
                 (A) (A) (A) (A) (A) (A) (A) (A) (A) (A) (A) (A)
                 (A) (A) (A) (A) (A) (A) (A) (A) (A) (A) (A) (A)
                 (A) (A) (A) (A) (A) (A) (A) (A) (A) (A) (A) (A)
                 (A) (A) (A) (A) (A) (A) (A) (A) (A) (A) (A) (A)
                 (A) (A) (A) (A) (A) (A) (A) (A) (A) (A) (A) (A)
                 (A) (A) (A) (A) (A) (A) (A) (A) (A) (A) (A) (A)
                 (A) (A) (A) (A) (A) (A) (A) (A) (A) (A) (A) (A)
                 (A) (A) (A) (A) (A) (A) (A) (A) (A) (A) (A) (A)
                 (A) (A) (A) (A) (A) (A) (A) (A) (A) (A) (A) (A)
                 (A) (A) (A) (A) (A) (A) (A) (A) (A) (A) (A) (A)
                 (A) (A) (A) (A) (A) (A) (A) (A) (A) (A) (A) (A)
                 (A) (A) (A) (A) (A) (A) (A) (A) (A) (A) (A) (A)
                 (A) (A) (A) (A) (A) (A) (A) (A) (A) (A) (A) (A)
                 (A) (A) (A) (A) (A) (A) (A) (A) (A) (A) (A) (A)
                 (A) (A) (A) (A) (A) (A) (A) (A) (A) (A) (A) (A)
                 (A) (A) (A) (A) (A) (A) (A) (A) (A) (A) (A) (A)
                 (A) (A) (A) (A) (A) (A) (A) (A) (A) (A) (A) (A)
                 (A) (A) (A) (A) (A) (A) (A) (A) (A) (A) (A) (A)
                 (A) (A) (A) (A) (A) (A) (A) (A) (A) (A) (A) (A)
                 (A) (A) (A) (A) (A) (A) (A) (A) (A) (A) (A) (A)
                 (A) (A) (A) (A) (A) (A) (A) (A) (A) (A) (A) (A)
                 (A) (A) (A) (A) (A) (A) (A) (A) (A) (A)
 The electronic state is 1-A.
 Alpha  occ. eigenvalues --  -19.24083 -19.14371 -14.40011 -14.36922 -14.36356
 Alpha  occ. eigenvalues --  -10.38761 -10.29930 -10.26768 -10.26759 -10.25868
 Alpha  occ. eigenvalues --  -10.25001 -10.24762 -10.24601 -10.23917 -10.23740
 Alpha  occ. eigenvalues --  -10.23487 -10.23476 -10.23365 -10.23286 -10.23282
 Alpha  occ. eigenvalues --  -10.22983 -10.21897 -10.21856 -10.21301 -10.21292
 Alpha  occ. eigenvalues --  -10.20912 -10.20333  -1.16508  -1.00498  -0.97336
 Alpha  occ. eigenvalues --   -0.95398  -0.89024  -0.86850  -0.84586  -0.83014
 Alpha  occ. eigenvalues --   -0.80712  -0.77408  -0.75788  -0.73804  -0.72713
 Alpha  occ. eigenvalues --   -0.70242  -0.70182  -0.69707  -0.68701  -0.66347
 Alpha  occ. eigenvalues --   -0.64683  -0.62373  -0.61615  -0.61308  -0.58848
 Alpha  occ. eigenvalues --   -0.56663  -0.55013  -0.54284  -0.52744  -0.52125
 Alpha  occ. eigenvalues --   -0.51961  -0.51201  -0.49394  -0.48515  -0.48149
 Alpha  occ. eigenvalues --   -0.47029  -0.46555  -0.46089  -0.45883  -0.45282
 Alpha  occ. eigenvalues --   -0.45061  -0.43558  -0.43288  -0.42772  -0.42378
 Alpha  occ. eigenvalues --   -0.42295  -0.41160  -0.40470  -0.40404  -0.40066
 Alpha  occ. eigenvalues --   -0.39349  -0.38884  -0.38647  -0.38020  -0.37888
 Alpha  occ. eigenvalues --   -0.37733  -0.37569  -0.37030  -0.35678  -0.35353
 Alpha  occ. eigenvalues --   -0.35066  -0.34350  -0.33934  -0.33735  -0.33537
 Alpha  occ. eigenvalues --   -0.32875  -0.31914  -0.31764  -0.30349  -0.30031
 Alpha  occ. eigenvalues --   -0.26660  -0.26209  -0.23471  -0.22197  -0.21594
 Alpha  occ. eigenvalues --   -0.19419
 Alpha virt. eigenvalues --   -0.05834  -0.00492  -0.00433   0.05574   0.07522
 Alpha virt. eigenvalues --    0.08067   0.08542   0.09295   0.09550   0.10058
 Alpha virt. eigenvalues --    0.10607   0.11301   0.11802   0.11909   0.12335
 Alpha virt. eigenvalues --    0.12815   0.13357   0.14221   0.14545   0.14710
 Alpha virt. eigenvalues --    0.14852   0.15117   0.15534   0.15947   0.16200
 Alpha virt. eigenvalues --    0.16784   0.17040   0.17483   0.18035   0.18309
 Alpha virt. eigenvalues --    0.18528   0.19032   0.19147   0.19548   0.20083
 Alpha virt. eigenvalues --    0.20585   0.20902   0.21139   0.21788   0.21892
 Alpha virt. eigenvalues --    0.22319   0.22546   0.22924   0.23276   0.24453
 Alpha virt. eigenvalues --    0.24753   0.25637   0.26603   0.26883   0.27521
 Alpha virt. eigenvalues --    0.28099   0.28590   0.29087   0.29705   0.30283
 Alpha virt. eigenvalues --    0.30770   0.31423   0.31572   0.32773   0.33321
 Alpha virt. eigenvalues --    0.33557   0.34834   0.35330   0.36743   0.38185
 Alpha virt. eigenvalues --    0.39933   0.41434   0.41671   0.42159   0.42927
 Alpha virt. eigenvalues --    0.43797   0.44896   0.45353   0.45677   0.46661
 Alpha virt. eigenvalues --    0.47539   0.47663   0.47911   0.49025   0.49297
 Alpha virt. eigenvalues --    0.49826   0.50144   0.50513   0.51581   0.52427
 Alpha virt. eigenvalues --    0.53743   0.53884   0.54501   0.54682   0.55285
 Alpha virt. eigenvalues --    0.55514   0.55738   0.56257   0.56937   0.58107
 Alpha virt. eigenvalues --    0.58637   0.59375   0.59902   0.60227   0.61486
 Alpha virt. eigenvalues --    0.62238   0.62602   0.63130   0.63477   0.64156
 Alpha virt. eigenvalues --    0.64839   0.65079   0.65160   0.65571   0.65994
 Alpha virt. eigenvalues --    0.66207   0.66560   0.66766   0.66848   0.67354
 Alpha virt. eigenvalues --    0.67623   0.67811   0.68023   0.68632   0.69108
 Alpha virt. eigenvalues --    0.69601   0.69740   0.69932   0.70292   0.70540
 Alpha virt. eigenvalues --    0.70635   0.70835   0.71400   0.71755   0.71981
 Alpha virt. eigenvalues --    0.72239   0.72433   0.72720   0.73205   0.73518
 Alpha virt. eigenvalues --    0.73699   0.73774   0.73907   0.74397   0.74979
 Alpha virt. eigenvalues --    0.75080   0.75851   0.76069   0.76135   0.76450
 Alpha virt. eigenvalues --    0.76653   0.77137   0.78126   0.78458   0.78811
 Alpha virt. eigenvalues --    0.79613   0.80247   0.80938   0.81498   0.81738
 Alpha virt. eigenvalues --    0.82176   0.83125   0.83853   0.84488   0.84943
 Alpha virt. eigenvalues --    0.86641   0.87173   0.87633   0.88206   0.88847
 Alpha virt. eigenvalues --    0.90601   0.92980   0.93753   0.94943   0.96127
 Alpha virt. eigenvalues --    0.97598   0.99907   1.01035   1.02740   1.04352
 Alpha virt. eigenvalues --    1.04855   1.05981   1.06145   1.06558   1.07891
 Alpha virt. eigenvalues --    1.09650   1.11565   1.12582   1.13552   1.14320
 Alpha virt. eigenvalues --    1.15343   1.16246   1.17356   1.18177   1.18767
 Alpha virt. eigenvalues --    1.20224   1.20997   1.22199   1.22803   1.23806
 Alpha virt. eigenvalues --    1.25128   1.25294   1.26011   1.26355   1.27103
 Alpha virt. eigenvalues --    1.28335   1.29704   1.30213   1.31783   1.32164
 Alpha virt. eigenvalues --    1.32254   1.34136   1.35202   1.36328   1.37357
 Alpha virt. eigenvalues --    1.37608   1.39257   1.40078   1.40547   1.41912
 Alpha virt. eigenvalues --    1.43870   1.45272   1.48638   1.48761   1.50931
 Alpha virt. eigenvalues --    1.52736   1.53528   1.53987   1.55037   1.55046
 Alpha virt. eigenvalues --    1.55457   1.56753   1.57621   1.58661   1.59342
 Alpha virt. eigenvalues --    1.59503   1.60805   1.61288   1.62074   1.64492
 Alpha virt. eigenvalues --    1.64763   1.65068   1.66457   1.67103   1.67889
 Alpha virt. eigenvalues --    1.70395   1.70799   1.71022   1.72478   1.72593
 Alpha virt. eigenvalues --    1.72861   1.73323   1.74067   1.74669   1.74884
 Alpha virt. eigenvalues --    1.75416   1.76143   1.76604   1.76946   1.77280
 Alpha virt. eigenvalues --    1.77787   1.78191   1.78711   1.78983   1.79495
 Alpha virt. eigenvalues --    1.79996   1.80118   1.80374   1.81138   1.81750
 Alpha virt. eigenvalues --    1.82315   1.82831   1.83955   1.84033   1.84697
 Alpha virt. eigenvalues --    1.85079   1.85579   1.86125   1.86610   1.86649
 Alpha virt. eigenvalues --    1.87061   1.87338   1.87822   1.88053   1.88971
 Alpha virt. eigenvalues --    1.89740   1.90062   1.90676   1.91242   1.91945
 Alpha virt. eigenvalues --    1.92681   1.93048   1.93363   1.93583   1.94033
 Alpha virt. eigenvalues --    1.94916   1.95588   1.96023   1.96432   1.96729
 Alpha virt. eigenvalues --    1.97187   1.97748   1.98518   1.98713   2.00413
 Alpha virt. eigenvalues --    2.00951   2.01364   2.01805   2.02880   2.03566
 Alpha virt. eigenvalues --    2.04013   2.04669   2.05036   2.06388   2.07613
 Alpha virt. eigenvalues --    2.08166   2.09841   2.10423   2.11282   2.11471
 Alpha virt. eigenvalues --    2.12126   2.13185   2.13939   2.14349   2.14929
 Alpha virt. eigenvalues --    2.16143   2.16641   2.17339   2.18043   2.18171
 Alpha virt. eigenvalues --    2.18759   2.20452   2.21214   2.22582   2.23390
 Alpha virt. eigenvalues --    2.23563   2.24620   2.26485   2.27589   2.28252
 Alpha virt. eigenvalues --    2.29627   2.30517   2.30910   2.31430   2.32454
 Alpha virt. eigenvalues --    2.33231   2.33820   2.35247   2.36119   2.36608
 Alpha virt. eigenvalues --    2.37986   2.38352   2.38681   2.39771   2.41813
 Alpha virt. eigenvalues --    2.41960   2.42657   2.43715   2.44514   2.45556
 Alpha virt. eigenvalues --    2.47364   2.48112   2.48752   2.49309   2.50332
 Alpha virt. eigenvalues --    2.50691   2.51848   2.52494   2.53450   2.55085
 Alpha virt. eigenvalues --    2.56607   2.57637   2.58667   2.59173   2.61224
 Alpha virt. eigenvalues --    2.61622   2.63850   2.64325   2.65132   2.65764
 Alpha virt. eigenvalues --    2.66188   2.66987   2.67249   2.70440   2.71586
 Alpha virt. eigenvalues --    2.72866   2.73352   2.74413   2.74618   2.76191
 Alpha virt. eigenvalues --    2.76322   2.76747   2.77431   2.77867   2.79763
[...]
 .00000015,0.00000004,-0.00000015,-0.00000080,-0.00000243,-0.00000123,0
 .00000105,0.00000014,0.00000023,-0.00000089,0.00000033,0.00000017,0.00
 000016,0.00000060,0.00000043,-0.00000044,0.00000061,0.00000021,-0.0000
 0029,-0.00000007,0.00000029,-0.00000075,0.00000020,-0.00000008,-0.0000
 0019,0.00000015,0.,-0.00000041,0.00000022,0.,-0.00000030,-0.00000012,-
 0.00000007,0.00000008,-0.00000019,0.00000006,0.00000024,-0.00000008,0.
 ,0.00000016,-0.00000031,-0.00000016,0.00000018,-0.00000009,-0.00000018
 ,0.00000023,0.00003325,0.00003953,0.00000704,-0.00001956,-0.00016904,0
 .00001630,0.00070106,-0.00020424,-0.00089227,-0.00472014,0.00381651,-0
 .00528767,0.00007491,0.00160235,0.00123309,0.00022823,-0.00008407,0.00
 023541,0.00024297,0.00045182,-0.00048858,0.00013213,-0.00010774,-0.000
 23285,0.00006967,-0.00106895,0.00016804,-0.00008918,0.00000022,0.00014
 761,0.00032093,-0.00015605,0.00005200,-0.00000172,-0.00001926,0.000061
 38,-0.07898166,0.05324388,-0.07322109,0.07948997,0.00007429,-0.0000111
 2,-0.00005619,0.00000862,0.00001845,0.00001675,0.00000227,-0.00001320,
 -0.00000764,-0.00000046,0.00000346,0.00000188,0.00000465,-0.00000485,-
 0.00000664,0.00000316,-0.00000035,0.00000194,0.00003474,-0.00001268,-0
 .00000349,0.00000374,0.00000497,-0.00000406,0.00000996,0.00000123,0.00
 000178,0.00000254,-0.00000487,0.00000083,-0.00000431,-0.00000118,-0.00
 000020,0.00000246,0.00000480,-0.00000316,0.00000009,-0.00000004,0.0000
 0021,0.00000039,-0.00000010,0.00000084,-0.00000355,0.00000219,0.000000
 13,-0.00000081,0.00000021,0.00000039,-0.00000515,-0.00002010,-0.000000
 17,-0.00000099,0.00000041,-0.00000247,-0.00000104,0.00000106,-0.000002
 83,-0.00000250,0.00000119,-0.00000283,0.00000039,-0.00000071,-0.000001
 03,0.00000016,0.,0.00000030,-0.00000059,0.00000030,0.00000050,0.000000
 78,-0.00000381,-0.00000451,0.00000024,0.00000139,-0.00000080,-0.000000
 68,0.00000003,0.00000031,0.00000409,0.00000547,-0.00000874,0.00000353,
 -0.00000047,0.00000019,-0.00000074,0.00000072,0.,-0.00000032,0.0000000
 8,-0.00000008,-0.00000028,-0.00000032,-0.00000039,0.00000013,0.0000001
 2,-0.00000016,-0.00000013,-0.00000002,0.00000002,0.00000012,-0.0000002
 2,0.,-0.00000010,0.00000009,0.00000023,-0.00000004,0.00000002,0.000000
 06,0.00000002,-0.00000006,0.00000011,-0.00000014,-0.00000010,-0.000000
 09,-0.00000003,-0.00000006,0.00000002,0.00000009,-0.00000013,-0.000000
 25,-0.00000002,0.00000002,-0.00000003,-0.00000009,0.00000021,-0.000000
 21,0.00000009,0.00000006,0.00000006,0.00000002,0.00000021,0.,-0.000372
 73,0.00019525,0.00005092,0.00009848,0.00013126,-0.00013548,-0.00165675
 ,0.00165806,0.00077380,0.00914736,-0.01594677,0.02374313,0.00141296,-0
 .00528421,-0.00353560,0.00009254,0.00013936,0.00001471,0.00091751,-0.0
 0094414,0.00143993,-0.00015559,0.00024545,-0.00021341,0.00077474,0.001
 37736,0.00132783,0.00009501,0.00026676,-0.00017951,-0.00039029,-0.0000
 1319,-0.00052849,-0.00006485,-0.00003771,-0.00004862,0.05294192,-0.131
 48690,0.11477776,-0.05908423,0.14262508,-0.00005946,0.00006901,0.00007
 899,-0.00000172,-0.00003142,-0.00000754,0.00001254,0.00002780,0.000000
 64,0.00000035,0.00000055,-0.00000042,-0.00000597,0.00000570,0.00000772
 ,-0.00000445,0.00000514,0.00000087,0.00002213,0.00000804,-0.00001192,0
 .00000020,-0.00000760,-0.00000183,-0.00000337,-0.00000470,-0.00000047,
 -0.00000224,-0.00000142,-0.00000301,0.00000066,0.00000303,-0.00000212,
 0.00000191,0.00000836,-0.00000317,0.00000032,-0.00000038,-0.00000088,-
 0.00000062,-0.00000044,0.00000019,0.00000103,-0.00000018,0.00000185,-0
 .00000077,-0.00000004,0.00000036,-0.00000832,-0.00001993,-0.00001542,-
 0.00000016,-0.00000024,0.00000325,-0.00000035,-0.00000177,0.00000171,0
 .00000117,-0.00000197,0.00000396,-0.00000051,0.00000126,0.00000138,0.0
 0000007,0.00000021,-0.00000007,0.00000016,0.00000004,-0.00000003,-0.00
 000188,0.00000182,0.00000450,-0.00000055,-0.00000132,0.00000080,-0.000
 00122,-0.00000018,0.00000108,-0.00000680,-0.00000250,0.00001063,-0.000
 00082,0.00000130,-0.00000033,0.00000023,-0.00000044,0.00000002,-0.0000
 0008,-0.00000013,0.00000032,0.00000064,0.00000074,-0.00000013,-0.00000
 009,-0.00000016,0.00000022,-0.00000006,-0.00000008,-0.00000002,-0.0000
 0020,0.00000006,0.00000013,0.,-0.00000017,-0.00000009,0.,-0.00000010,0
 .00000004,-0.00000009,0.00000008,-0.00000007,0.00000012,0.00000009,0.,
 0.00000008,0.00000008,-0.00000007,-0.00000005,0.00000004,0.00000009,-0
 .00000004,0.00000002,0.00000007,0.00000013,-0.00000012,0.00000022,-0.0
 0000025,-0.00000014,-0.00000003,-0.00000002,-0.00000034,0.00000009,-0.
 00011621,-0.00020931,0.00016109,0.00002997,0.00004275,-0.00002521,-0.0
 0061907,-0.00015634,0.00148499,0.00498146,-0.00770189,0.00682088,0.000
 56524,-0.00125963,0.00016397,0.00007634,-0.00006954,-0.00005581,0.0001
 6367,-0.00037751,0.00033052,-0.00010359,-0.00012243,0.00013063,0.00037
 862,-0.00030868,0.00073360,0.00010750,0.00002344,0.00014254,0.00017649
 ,0.00007774,0.00005084,-0.00009104,-0.00000152,0.00005344,-0.07420501,
 0.11917374,-0.20631463,0.07916660,-0.12526587,0.21633535,0.00007962,-0
 .00006421,-0.00008025,-0.00001019,0.00003496,0.00000033,-0.00000228,-0
 .00002979,0.,-0.00000057,-0.00000047,0.00000029,0.00000710,-0.00000314
 ,-0.00000650,0.00000734,-0.00000898,-0.00000124,-0.00000696,-0.0000124
 9,0.00000315,0.00000588,0.00000465,-0.00000581,-0.00000079,0.00000775,
 0.00000587,0.00000272,0.00000191,0.00000199,-0.00000170,-0.00000240,0.
 00000360,-0.00000184,-0.00000191,0.00000321,-0.00000023,0.00000001,0.0
 0000021,0.00000051,0.00000034,-0.00000015,-0.00000117,0.00000030,-0.00
 000248,0.00000112,0.00000003,-0.00000025,0.00000368,0.00000080,-0.0000
 0021,-0.00000013,0.00000029,-0.00000138,0.00000153,0.00000197,-0.00000
 266,-0.00000241,0.00000335,-0.00000516,0.00000079,-0.00000161,-0.00000
 183,-0.00000012,-0.00000033,0.00000012,0.00000036,-0.00000007,0.000000
 19,-0.00000059,-0.00000209,-0.00000428,-0.00000060,0.00000206,-0.00000
 007,0.00000120,0.00000074,-0.00000034,-0.00000135,-0.00000052,0.000001
 37,-0.00000036,-0.00000132,0.00000048,0.,-0.00000001,0.00000009,0.0000
 0014,0.00000006,-0.00000048,-0.00000164,-0.00000106,0.00000062,0.00000
 008,0.00000024,-0.00000039,0.00000035,0.00000011,0.00000006,0.00000037
 ,-0.00000008,-0.00000022,0.00000005,0.00000022,0.,-0.00000026,0.000000
 30,-0.00000007,0.00000007,-0.00000009,0.,-0.00000028,-0.00000026,-0.00
 000013,0.,-0.00000007,0.00000007,0.,0.00000005,0.00000008,0.00000021,-
 0.00000012,-0.00000005,-0.00000006,0.,-0.00000002,0.00000035,0.0000003
 2,0.00000014,-0.00000006,0.00000027,-0.00000006,0.00015318,0.00024041,
 -0.00002092,-0.00001198,-0.00004345,0.00001465,0.00141558,0.00018318,-
 0.00045764,0.00505504,0.00517155,0.00458400,0.00062126,0.00034105,0.00
 034142,0.00009104,-0.00009295,0.00017106,0.00015896,-0.00002493,0.0000
 9336,0.00005904,-0.00000891,-0.00008376,0.00056577,0.00062883,0.000480
 91,0.00021005,0.00026124,0.00010541,-0.00004792,0.00007880,0.00008312,
 0.00015737,0.00014364,-0.00006451,-0.22828050,-0.10091238,-0.09004780,
 -0.00648840,-0.00432402,-0.00144083,0.23994216,0.00004358,0.00001025,-
 0.00008822,-0.00001999,0.00002124,-0.00000245,-0.00000253,-0.00001239,
 -0.00000486,-0.00000151,0.00000272,0.00000124,0.00000464,0.00000008,-0
 .00000253,0.00000470,-0.00000566,-0.00000021,0.00000154,-0.00001727,-0
 .00001397,0.00000565,0.00000324,-0.00000320,0.00000782,0.00000075,-0.0
 0000313,0.00000035,-0.00000039,0.00000284,-0.00000461,0.00000025,0.000
 00177,-0.00000084,0.00000022,0.00000380,-0.00000027,0.00000107,0.00000
 079,0.00000026,0.00000025,0.,-0.00000050,0.00000092,-0.00000219,0.0000
 0085,0.00000039,-0.00000012,0.00000364,-0.00000415,0.00000119,-0.00000
 030,0.00000038,-0.00000160,0.00000194,0.00000090,-0.00000433,-0.000002
 09,0.00000228,-0.00000346,0.00000069,-0.00000103,-0.00000130,-0.000000
 10,-0.00000009,0.00000027,0.00000053,-0.00000005,0.00000018,-0.0000005
 6,-0.00000195,-0.00000302,-0.00000010,0.00000138,-0.00000056,0.0000001
 8,0.00000081,0.00000013,0.00000019,0.00000083,-0.00000008,0.00000050,-
 0.00000119,0.00000060,-0.00000013,0.00000015,0.00000012,0.00000005,0.0
 0000009,-0.00000052,-0.00000187,-0.00000120,0.00000060,0.00000014,0.00
 000026,-0.00000051,0.00000038,0.00000011,0.00000004,0.00000044,-0.0000
 0005,-0.00000019,0.00000009,0.00000018,-0.00000003,-0.00000033,0.00000
 032,-0.00000022,0.00000020,-0.00000013,0.00000002,-0.00000010,-0.00000
 015,-0.00000014,0.00000009,-0.00000007,-0.00000004,-0.00000001,-0.0000
 0003,0.00000002,0.00000014,-0.00000006,0.,-0.00000010,0.00000005,-0.00
 000002,0.00000009,0.00000021,0.00000014,-0.00000006,0.00000016,0.00000
 007,-0.00006380,0.00012854,0.00042640,0.00014580,0.00010891,-0.0000876
 6,-0.00061413,0.00153054,0.00176892,-0.02518334,-0.01274395,-0.0105078
 7,-0.00121272,0.00144323,-0.00064113,0.00050188,-0.00017196,0.00035505
 ,0.00017782,0.00025471,-0.00007865,0.00003197,-0.00005489,0.00007654,0
 .00285557,-0.00532781,-0.00203472,-0.00149409,-0.00068389,-0.00101797,
 -0.00001654,0.00014713,-0.00010048,0.00023554,0.00018612,0.00017858,-0
 .09670315,-0.09968211,-0.04758510,0.01466680,0.00818553,0.00596498,0.1
 0639285,0.10800967,-0.00005423,0.00003162,0.00002888,0.00000976,-0.000
 01518,-0.00000551,0.00002105,-0.00000653,0.00000195,-0.00000024,0.0000
 0324,-0.00000055,-0.00000341,0.00000255,0.00000371,-0.00000370,0.00000
 327,-0.00000055,-0.00002030,0.00002631,-0.00004420,-0.00000076,-0.0000
 0339,0.00000210,-0.00001274,0.00000282,-0.00000335,-0.00000356,-0.0000
 0113,-0.00000049,0.00000710,-0.00000263,-0.00000290,0.00000001,0.00000
 077,0.00000338,0.00000038,0.00000158,0.00000043,-0.00000090,-0.0000004
 2,-0.00000009,0.00000305,0.00000094,0.00000149,0.00000006,0.00000010,-
 0.00000029,-0.00000291,0.00000356,0.00000244,0.00000094,-0.00000009,0.
 00000237,-0.00000086,0.00000098,0.00000610,0.00000195,-0.00000170,0.00
 000248,-0.00000061,0.00000077,0.00000110,-0.00000012,0.00000073,0.0000
 0016,0.00000009,-0.00000007,-0.00000014,0.00000427,-0.00000100,0.00000
 359,-0.00000035,-0.00000087,0.00000169,0.00000091,0.00000018,-0.000000
 68,-0.00000427,0.00000068,-0.00000199,-0.00000333,-0.00000116,-0.00000
 081,0.00000051,-0.00000019,-0.00000010,0.00000023,0.00000009,0.0000005
 6,0.00000139,0.00000109,-0.00000023,-0.00000017,-0.00000021,0.00000074
 ,-0.00000002,-0.00000013,-0.00000016,-0.00000035,-0.00000020,0.0000002
 4,-0.00000028,-0.00000012,0.00000012,-0.00000020,-0.00000006,0.0000003
 2,0.,0.,0.00000015,-0.00000021,-0.00000015,0.00000024,-0.00000014,-0.0
 0000003,0.00000022,0.00000007,0.00000012,0.00000010,0.00000034,-0.0000
 0015,-0.00000023,0.00000008,-0.00000009,0.,0.00000035,0.00000034,-0.00
 000011,0.00000003,0.00000014,-0.00000017,0.00004186,-0.00008471,0.0000
 3187,0.00003255,0.00019927,-0.00000571,-0.00090898,0.00042724,0.000924
 21,-0.00816924,-0.00405850,-0.00611088,0.00013987,0.00117841,0.0000974
 6,0.00011641,0.00009497,0.00039056,0.00016697,0.00001727,-0.00010069,0
 .00007040,0.00000468,0.00000213,0.00134273,-0.00224682,-0.00032766,-0.
 00067265,-0.00050351,0.00010464,0.00024415,0.00003511,0.00022802,-0.00
 020136,0.00012204,0.00015215,-0.08870840,-0.04796091,-0.08889732,-0.01
 671397,-0.01147101,-0.00725007,0.09625505,0.05397691,0.09060807,-0.000
 27321,0.00012866,0.00027031,0.00000214,-0.00010717,-0.00004818,0.00002
 547,0.00009425,-0.00000796,0.00000739,0.00000348,-0.00000933,-0.000022
 81,0.00001924,0.00002757,-0.00001516,0.00001774,-0.00000384,0.00000213
 ,0.00001660,-0.00000738,-0.00001241,-0.00001955,0.00000872,-0.00001403
 ,-0.00001246,-0.00000890,-0.00000976,-0.00000559,-0.00000748,0.0000133
 8,0.00000395,-0.00000946,0.00000222,0.00000178,-0.00000645,0.00000125,
 0.00000126,-0.00000136,-0.00000244,-0.00000149,0.,0.00000737,0.0000001
 2,0.00000792,-0.00000147,-0.00000040,0.00000011,-0.00001606,-0.0000014
 4,-0.00000944,0.00000154,-0.00000124,0.00000652,-0.00000432,-0.0000040
 0,0.00001520,0.00000765,-0.00000900,0.00001352,-0.00000226,0.00000420,
 0.00000539,0.00000004,0.00000151,-0.00000037,-0.00000024,0.00000005,-0
 .00000067,0.00000214,0.00000644,0.00001421,0.00000098,-0.00000620,0.00
 000192,-0.00000023,-0.00000118,-0.00000093,0.00000036,-0.00000241,0.00
 000051,-0.00000472,0.00000178,-0.00000267,0.00000089,-0.00000055,-0.00
 000058,0.00000009,-0.00000011,0.00000184,0.00000579,0.00000393,-0.0000
 0162,-0.00000046,-0.00000093,0.00000189,-0.00000073,-0.00000040,-0.000
 00032,-0.00000123,0.00000007,0.00000077,-0.00000032,-0.00000062,-0.000
 00001,0.00000026,-0.00000059,0.00000039,-0.00000008,0.00000026,0.00000
 011,0.00000004,0.00000012,0.00000007,-0.00000004,-0.00000016,0.,0.0000
 0004,0.00000012,0.00000004,0.00000005,0.00000004,-0.00000010,0.0000002
 1,-0.00000016,0.00000009,-0.00000004,-0.00000009,-0.00000018,0.0000000
 8,-0.00000022,-0.00000006,0.00083840,-0.00123337,-0.00043356,-0.000071
 60,0.00059678,0.00002937,-0.00087605,0.00251300,0.00207441,-0.00556104
 ,-0.00344250,0.00260829,0.00010635,-0.00046677,0.00005557,0.00004390,0
 .00007910,0.00002712,0.00015920,-0.00002826,-0.00014279,0.00010354,0.0
 0028149,-0.00025899,-0.00019251,-0.00076398,-0.00040172,0.00013251,0.0
 0015851,-0.00016613,0.00003110,0.00003317,-0.00005458,0.00035301,-0.00
 027971,-0.00026822,-0.18695462,-0.01341053,0.14170824,0.00904551,0.000
 43335,-0.00901182,-0.01368050,0.00023686,0.01702572,0.19682337,0.00053
 124,-0.00042535,-0.00061394,-0.00001266,0.00023067,0.00003041,-0.00004
 561,-0.00019244,0.00002847,-0.00001241,-0.00000369,0.00001179,0.000046
 32,-0.00003318,-0.00005251,0.00004181,-0.00004805,0.00000343,-0.000003
 70,-0.00002583,0.00000159,0.00002462,0.00003810,-0.00001894,0.00001989
 ,0.00002940,0.00001708,0.00002107,0.00000839,0.00001483,-0.00002188,-0
 .00001221,0.00001747,-0.00000409,0.00000184,0.00000611,-0.00000236,-0.
 00000225,0.00000214,0.00000457,0.00000270,0.00000040,-0.00001503,0.000
 00080,-0.00001488,0.00000315,0.00000093,-0.00000026,0.00002778,-0.0000
 0412,0.00001678,-0.00000244,0.00000258,-0.00001206,0.00000743,0.000009
 32,-0.00002520,-0.00001623,0.00001962,-0.00003244,0.00000499,-0.000009
 80,-0.00001178,-0.00000011,-0.00000259,0.00000079,0.00000022,0.0000000
 9,0.00000140,-0.00000364,-0.00001229,-0.00002714,-0.00000214,0.0000120
 2,-0.00000261,0.00000101,0.00000253,0.00000096,-0.00000196,0.00000258,
 0.00000187,0.00000821,-0.00000461,0.00000429,-0.00000148,0.00000118,0.
 00000095,-0.00000005,0.00000038,-0.00000304,-0.00001017,-0.00000646,0.
 00000253,0.00000081,0.00000161,-0.00000297,0.00000134,0.00000063,0.000
 00046,0.00000217,-0.00000043,-0.00000135,0.00000031,0.00000107,0.00000
 016,-0.00000066,0.00000106,-0.00000050,-0.00000017,-0.00000043,-0.0000
 0018,0.00000001,-0.00000018,0.00000024,-0.00000012,0.00000075,0.000000
 21,0.00000012,-0.00000018,-0.00000005,0.00000018,-0.00000016,-0.000000
 11,-0.00000011,0.00000022,-0.00000010,0.00000017,0.00000035,0.00000006
 ,0.,0.00000019,-0.00000006,0.00012206,0.00200955,0.00013330,-0.0000488
 7,-0.00070298,-0.00002472,0.00446847,-0.00601054,-0.00528276,0.0177935
 5,0.00516190,-0.01702761,0.00001640,0.00074190,-0.00001026,0.00005944,
 -0.00002177,0.00004469,-0.00023354,0.00017600,-0.00010245,0.00014920,-
 0.00038574,0.00019559,0.00014508,0.00083261,0.00013624,0.00012606,0.00
 012250,0.00024894,-0.00005785,-0.00000301,-0.00005442,-0.00024575,-0.0
 0034185,-0.00021061,-0.01718048,-0.04828464,0.01674662,-0.01290283,-0.
 00108350,0.01013248,-0.00796459,-0.00133341,0.01022320,0.01516326,0.04
 953819,0.00030862,-0.00014945,-0.00036143,-0.00004768,0.00013810,0.000
 02045,-0.00002173,-0.00011455,0.00001620,-0.00001046,-0.00000385,0.000
 00968,0.00002516,-0.00001533,-0.00002486,0.00002634,-0.00003186,0.0000
 0058,-0.00001179,-0.00001911,0.00000491,0.00001698,0.00002171,-0.00001
 317,0.00001363,0.00001677,0.00000949,0.00001297,0.00000868,0.00000961,
 -0.00001650,-0.00000579,0.00001389,-0.00000373,-0.00000353,0.00000966,
 -0.00000155,-0.00000202,0.00000175,0.00000321,0.00000195,-0.00000021,-
 0.00000918,-0.00000107,-0.00001055,0.00000238,0.00000054,-0.00000028,0
 .00001732,0.00000122,0.00000888,-0.00000156,0.00000166,-0.00000679,0.0
 0000526,0.00000521,-0.00001902,-0.00001019,0.00001304,-0.00001951,0.00
 000341,-0.00000592,-0.00000730,-0.00000004,-0.00000195,0.00000063,0.00
 000080,-0.00000023,0.00000092,-0.00000688,-0.00000468,-0.00001594,-0.0
 0000057,0.00000710,-0.00000255,0.00000119,0.00000146,0.00000036,0.0000
 0013,-0.00000188,0.00000389,0.00000559,-0.00000215,0.00000340,-0.00000
 098,0.00000059,0.00000078,0.00000003,0.00000010,-0.00000240,-0.0000074
 9,-0.00000483,0.00000226,0.00000056,0.00000114,-0.00000235,0.00000098,
 0.00000049,0.00000039,0.00000160,-0.00000007,-0.00000103,0.00000050,0.
 00000083,0.00000002,-0.00000044,0.00000084,-0.00000064,0.00000012,-0.0
 0000038,-0.00000013,-0.00000004,-0.00000022,-0.00000011,0.00000001,0.0
 0000026,0.,-0.00000001,-0.00000017,-0.00000001,0.,-0.00000007,0.000000
 08,-0.00000022,0.00000019,-0.00000008,0.00000006,0.00000017,0.00000021
 ,-0.00000006,0.00000023,0.00000008,-0.00026738,0.00138053,0.00107068,-
 0.00003646,-0.00068065,-0.00014496,0.00225243,-0.00323377,-0.00180361,
 0.00473777,0.00422774,-0.00694555,-0.00033700,0.00092133,-0.00014215,-
 0.00005552,-0.00002226,0.00003547,-0.00021062,-0.00013208,0.00011291,-
 0.00022517,0.00022888,0.00041634,0.00014267,0.00055993,0.00019186,-0.0
 0012266,0.00003829,0.00018286,0.00001788,-0.00008298,0.00002287,-0.000
 30345,-0.00031085,0.00004680,0.14131703,0.01298659,-0.18449694,0.01575
 681,-0.00067065,-0.01283365,-0.00992136,-0.00057072,0.01015125,-0.1530
 4071,-0.01449252,0.19450604\\0.00000065,0.00000212,0.00000238,0.000003
 39,-0.00000244,-0.00000117,0.00000028,0.00000203,-0.00000161,0.0000007
 4,0.00000113,0.00000156,0.00000114,0.00000110,0.00000026,-0.00000160,0
 .00000128,0.00000074,-0.00000107,0.00000085,0.00000024,-0.00000045,0.0
 0000069,0.00000029,0.00000231,0.00000066,-0.00000206,0.00000295,-0.000
 00062,0.00000419,0.00000144,-0.00000027,0.00000339,0.00000028,-0.00000
 242,-0.00000195,-0.00000020,-0.00000007,0.00000142,0.00000225,-0.00000
 188,0.00000293,-0.00000506,-0.00000215,-0.00000381,-0.00000013,0.00000
 058,-0.00000020,-0.00000025,-0.00000097,0.00000016,-0.00000044,-0.0000
 0017,0.00000024,-0.00000108,-0.00000083,-0.00000768,0.00000087,-0.0000
 0044,0.00000205,0.00000140,-0.00000153,0.00000118,0.00000136,-0.000000
 25,0.00000138,0.00000101,0.00000102,0.00000055,-0.00000201,-0.00000053
 ,-0.00000040,-0.00000026,-0.00000031,-0.00000081,-0.00000038,0.0000002
 6,-0.00000084,-0.00000060,-0.00000039,-0.00000074,0.00000379,0.0000031
 7,0.00000315,-0.00000116,-0.00000173,0.00000055,-0.00000038,-0.0000010
 4,0.00000055,-0.00000140,-0.00000106,0.00000252,-0.00000114,-0.0000007
 8,0.00000046,0.00000010,-0.00000079,-0.00000085,0.00000134,-0.00000077
 ,0.00000036,-0.00000217,0.00000124,-0.00000185,-0.00000165,-0.00000323
 ,-0.00000208,-0.00000250,-0.00000406,-0.00000294,-0.00000306,0.0000023
 5,-0.00000275,0.00000087,-0.00000066,0.00000011,-0.00000113,-0.0000026
 1,-0.00000021,-0.00000092,0.00000050,-0.00000079,-0.00000142,-0.000001
 16,-0.00000148,-0.00000141,-0.00000022,-0.00000175,-0.00000226,-0.0000
 0080,-0.00000271,-0.00000307,-0.00000241,0.00000398,0.00000111,0.00000
 367,0.00000022,-0.00000135,0.00000007,0.00000050,0.00000464,0.00000272
 ,-0.00000278,0.00000078,0.00000012,0.00000178,0.00000097,0.00000194,0.
 00000050,0.00000074,0.00000157,0.00000109,0.00000081,0.00000209,0.0000
 0043,0.00000257,-0.00000063,-0.00000051,0.00000014,0.00000059,0.000001
 60,-0.00000007,0.00000047,0.00000086,0.00000070,0.00000012,0.00000082,
 -0.00000004,0.00000182,-0.00000004,-0.00000013,0.00000070,-0.00000031,
 0.00000010,0.00000125,-0.00000002,0.00000007,0.00000109,-0.00000008\\\
 @


 I HAVE NOT FAILED, I HAVE ONLY DISCOVERED 10,000
 WAYS THAT DIDN'T WORK.  -- THOMAS A. EDISON
 Job cpu time:       0 days 18 hours 51 minutes 37.4 seconds.
 Elapsed time:       0 days  0 hours 57 minutes 10.4 seconds.
 File lengths (MBytes):  RWF=   2011 Int=      0 D2E=      0 Chk=     45 Scr=      1
 Normal termination of Gaussian 16 at Fri Mar 12 22:19:11 2021.
