 Entering Gaussian System, Link 0=/opt/g16avx/g16
 Input=product_w_noboc.gjf
 Output=product_w_noboc.log
 Initial command:
 /opt/g16avx/l1.exe "/home/scratch/Gau-39960.inp" -scrdir="/home/scratch/"
 Entering Link 1 = /opt/g16avx/l1.exe PID=     39961.
  
 Copyright (c) 1988,1990,1992,1993,1995,1998,2003,2009,2016,
            Gaussian, Inc.  All Rights Reserved.
  
 This is part of the Gaussian(R) 16 program.  It is based on
 the Gaussian(R) 09 system (copyright 2009, Gaussian, Inc.),
 the Gaussian(R) 03 system (copyright 2003, Gaussian, Inc.),
 the Gaussian(R) 98 system (copyright 1998, Gaussian, Inc.),
 the Gaussian(R) 94 system (copyright 1995, Gaussian, Inc.),
 the Gaussian 92(TM) system (copyright 1992, Gaussian, Inc.),
 the Gaussian 90(TM) system (copyright 1990, Gaussian, Inc.),
 the Gaussian 88(TM) system (copyright 1988, Gaussian, Inc.),
 the Gaussian 86(TM) system (copyright 1986, Carnegie Mellon
 University), and the Gaussian 82(TM) system (copyright 1983,
 Carnegie Mellon University). Gaussian is a federally registered
 trademark of Gaussian, Inc.
  
 This software contains proprietary and confidential information,
 including trade secrets, belonging to Gaussian, Inc.
  
 This software is provided under written license and may be
 used, copied, transmitted, or stored only in accord with that
 written license.
  
 The following legend is applicable only to US Government
 contracts under FAR:
  
                    RESTRICTED RIGHTS LEGEND
  
 Use, reproduction and disclosure by the US Government is
 subject to restrictions as set forth in subparagraphs (a)
 and (c) of the Commercial Computer Software - Restricted
 Rights clause in FAR 52.227-19.
  
 Gaussian, Inc.
 340 Quinnipiac St., Bldg. 40, Wallingford CT 06492
  
  
 ---------------------------------------------------------------
 Warning -- This program may not be used in any manner that
 competes with the business of Gaussian, Inc. or will provide
 assistance to any competitor of Gaussian, Inc.  The licensee
 of this program is prohibited from giving any competitor of
 Gaussian, Inc. access to this program.  By using this program,
 the user acknowledges that Gaussian, Inc. is engaged in the
 business of creating and licensing software in the field of
 computational chemistry and represents and warrants to the
 licensee that it is not a competitor of Gaussian, Inc. and that
 it will not use this program in any manner prohibited above.
 ---------------------------------------------------------------
  

 Cite this work as:
 Gaussian 16, Revision A.03,
 M. J. Frisch, G. W. Trucks, H. B. Schlegel, G. E. Scuseria, 
 M. A. Robb, J. R. Cheeseman, G. Scalmani, V. Barone, 
 G. A. Petersson, H. Nakatsuji, X. Li, M. Caricato, A. V. Marenich, 
 J. Bloino, B. G. Janesko, R. Gomperts, B. Mennucci, H. P. Hratchian, 
 J. V. Ortiz, A. F. Izmaylov, J. L. Sonnenberg, D. Williams-Young, 
 F. Ding, F. Lipparini, F. Egidi, J. Goings, B. Peng, A. Petrone, 
 T. Henderson, D. Ranasinghe, V. G. Zakrzewski, J. Gao, N. Rega, 
 G. Zheng, W. Liang, M. Hada, M. Ehara, K. Toyota, R. Fukuda, 
 J. Hasegawa, M. Ishida, T. Nakajima, Y. Honda, O. Kitao, H. Nakai, 
 T. Vreven, K. Throssell, J. A. Montgomery, Jr., J. E. Peralta, 
 F. Ogliaro, M. J. Bearpark, J. J. Heyd, E. N. Brothers, K. N. Kudin, 
 V. N. Staroverov, T. A. Keith, R. Kobayashi, J. Normand, 
 K. Raghavachari, A. P. Rendell, J. C. Burant, S. S. Iyengar, 
 J. Tomasi, M. Cossi, J. M. Millam, M. Klene, C. Adamo, R. Cammi, 
 J. W. Ochterski, R. L. Martin, K. Morokuma, O. Farkas, 
 J. B. Foresman, and D. J. Fox, Gaussian, Inc., Wallingford CT, 2016.
 
 ******************************************
 Gaussian 16:  ES64L-G16RevA.03 25-Dec-2016
                12-Mar-2021 
 ******************************************
 %chk=pr_w_noboc.chk
 %nprocshared=20
 Will use up to   20 processors via shared memory.
 %mem=20Gb
 ----------------------------------------------------------------------
 #p opt PBE1PBE/DEF2SVP empiricaldispersion=gd3bj scrf=(SMD, solvent=Wa
 ter) freq=noraman pop=SaveNBOs
 ----------------------------------------------------------------------
 1/18=20,19=15,26=3,38=1/1,3;
 2/9=110,12=2,17=6,18=5,40=1/2;
 3/5=43,7=101,11=2,25=1,30=1,70=32201,71=1,72=1,74=-13,124=41/1,2,3;
 4//1;
 5/5=2,38=5,53=1/2;
 6/7=2,8=2,9=2,10=2,28=1,40=1,73=1/1,7;
 7//1,2,3,16;
 1/18=20,19=15,26=3/3(2);
 2/9=110/2;
 99//99;
 2/9=110/2;
 3/5=43,7=101,11=2,25=1,30=1,70=32205,71=1,72=1,74=-13,124=41/1,2,3;
 4/5=5,16=3,69=1/1;
 5/5=2,38=5,53=1/2;
 7//1,2,3,16;
 1/18=20,19=15,26=3/3(-5);
 2/9=110/2;
 6/7=2,8=2,9=2,10=2,19=2,28=1,40=1,73=1/1,7;
 99/9=1/99;
 Leave Link    1 at Fri Mar 12 22:19:12 2021, MaxMem=  2684354560 cpu:               2.7 elap:               0.2
 (Enter /opt/g16avx/l101.exe)
 ---------------
 Vatsadze, way 1
 ---------------
 Symbolic Z-matrix:
 Charge =  0 Multiplicity = 1
 N                     1.8621    0.34887  -0.83645 
 C                     1.32596   1.63472  -1.21025 
 C                     0.89573  -0.71555  -0.7068 
 H                     2.10545   2.38687  -1.02991 
 H                     1.10652   1.64415  -2.29588 
 C                     0.03404   2.01008  -0.47326 
 H                     1.38624  -1.58386  -0.25316 
 H                     0.52754  -1.02188  -1.70483 
 C                    -0.28758  -0.2623    0.16561 
 C                     0.16635   1.97242   1.07849 
 C                    -1.0187    0.88347  -0.60286 
 C                     0.29053   0.47262   1.40123 
 H                     1.02718   2.55916   1.43813 
 H                    -1.17836   3.45604   1.43785 
 N                    -1.04631   2.48544   1.70978 
 H                    -1.20484   0.59732  -1.65164 
 H                     1.33555   0.18495   1.58179 
 H                    -0.26405   0.23776   2.32081 
 N                    -2.2641    1.35214  -0.03776 
 C                    -0.41594   3.35317  -1.02399 
 H                    -1.42764   3.61228  -0.6859 
 H                     0.27535   4.15783  -0.72347 
 H                    -0.43881   3.33495  -2.12564 
 C                    -1.1423   -1.46731   0.50586 
 H                    -2.0376   -1.185     1.07564 
 H                    -1.48505  -1.99057  -0.39985 
 H                    -0.56717  -2.18669   1.11136 
 C                    -2.22416   1.71942   1.36012 
 H                    -2.2697    0.82959   2.02184 
 H                    -3.11969   2.31989   1.58927 
 C                    -3.52494   1.07633  -0.6709 
 H                    -4.24315   1.84502  -0.33197 
 H                    -3.4052    1.22072  -1.75818 
 C                    -4.13583  -0.2905   -0.43232 
 C                    -4.73578  -0.60343   0.79407 
 C                    -4.07554  -1.28306  -1.41514 
 C                    -5.23608  -1.88008   1.04017 
 C                    -4.57944  -2.56146  -1.17678 
 C                    -5.15447  -2.86586   0.0558 
 H                    -4.8125    0.16521   1.56851 
 H                    -3.62174  -1.05039  -2.38343 
 H                    -5.69811  -2.10737   2.00447 
 H                    -4.52229  -3.32433  -1.95772 
 H                    -5.5476   -3.86746   0.24718 
 H                     2.83877   0.20435  -0.67761 
 
 ITRead=  0  0  0  0  0  0  0  0  0  0  0  0  0  0  0  0  0  0  0  0
 ITRead=  0  0  0  0  0  0  0  0  0  0  0  0  0  0  0  0  0  0  0  0
 ITRead=  0  0  0  0  0
 MicOpt= -1 -1 -1 -1 -1 -1 -1 -1 -1 -1 -1 -1 -1 -1 -1 -1 -1 -1 -1 -1
 MicOpt= -1 -1 -1 -1 -1 -1 -1 -1 -1 -1 -1 -1 -1 -1 -1 -1 -1 -1 -1 -1
 MicOpt= -1 -1 -1 -1 -1
 NAtoms=     45 NQM=       45 NQMF=       0 NMMI=      0 NMMIF=      0
                NMic=       0 NMicF=      0.
                    Isotopes and Nuclear Properties:
 (Nuclear quadrupole moments (NQMom) in fm**2, nuclear magnetic moments (NMagM)
  in nuclear magnetons)

  Atom         1           2           3           4           5           6           7           8           9          10
 IAtWgt=          14          12          12           1           1          12           1           1          12          12
 AtmWgt=  14.0030740  12.0000000  12.0000000   1.0078250   1.0078250  12.0000000   1.0078250   1.0078250  12.0000000  12.0000000
 NucSpn=           2           0           0           1           1           0           1           1           0           0
 AtZEff=  -0.0000000  -0.0000000  -0.0000000  -0.0000000  -0.0000000  -0.0000000  -0.0000000  -0.0000000  -0.0000000  -0.0000000
 NQMom=    2.0440000   0.0000000   0.0000000   0.0000000   0.0000000   0.0000000   0.0000000   0.0000000   0.0000000   0.0000000
 NMagM=    0.4037610   0.0000000   0.0000000   2.7928460   2.7928460   0.0000000   2.7928460   2.7928460   0.0000000   0.0000000
 AtZNuc=   7.0000000   6.0000000   6.0000000   1.0000000   1.0000000   6.0000000   1.0000000   1.0000000   6.0000000   6.0000000

  Atom        11          12          13          14          15          16          17          18          19          20
 IAtWgt=          12          12           1           1          14           1           1           1          14          12
 AtmWgt=  12.0000000  12.0000000   1.0078250   1.0078250  14.0030740   1.0078250   1.0078250   1.0078250  14.0030740  12.0000000
 NucSpn=           0           0           1           1           2           1           1           1           2           0
 AtZEff=  -0.0000000  -0.0000000  -0.0000000  -0.0000000  -0.0000000  -0.0000000  -0.0000000  -0.0000000  -0.0000000  -0.0000000
 NQMom=    0.0000000   0.0000000   0.0000000   0.0000000   2.0440000   0.0000000   0.0000000   0.0000000   2.0440000   0.0000000
 NMagM=    0.0000000   0.0000000   2.7928460   2.7928460   0.4037610   2.7928460   2.7928460   2.7928460   0.4037610   0.0000000
 AtZNuc=   6.0000000   6.0000000   1.0000000   1.0000000   7.0000000   1.0000000   1.0000000   1.0000000   7.0000000   6.0000000

  Atom        21          22          23          24          25          26          27          28          29          30
 IAtWgt=           1           1           1          12           1           1           1          12           1           1
 AtmWgt=   1.0078250   1.0078250   1.0078250  12.0000000   1.0078250   1.0078250   1.0078250  12.0000000   1.0078250   1.0078250
 NucSpn=           1           1           1           0           1           1           1           0           1           1
 AtZEff=  -0.0000000  -0.0000000  -0.0000000  -0.0000000  -0.0000000  -0.0000000  -0.0000000  -0.0000000  -0.0000000  -0.0000000
 NQMom=    0.0000000   0.0000000   0.0000000   0.0000000   0.0000000   0.0000000   0.0000000   0.0000000   0.0000000   0.0000000
 NMagM=    2.7928460   2.7928460   2.7928460   0.0000000   2.7928460   2.7928460   2.7928460   0.0000000   2.7928460   2.7928460
 AtZNuc=   1.0000000   1.0000000   1.0000000   6.0000000   1.0000000   1.0000000   1.0000000   6.0000000   1.0000000   1.0000000

  Atom        31          32          33          34          35          36          37          38          39          40
 IAtWgt=          12           1           1          12          12          12          12          12          12           1
 AtmWgt=  12.0000000   1.0078250   1.0078250  12.0000000  12.0000000  12.0000000  12.0000000  12.0000000  12.0000000   1.0078250
 NucSpn=           0           1           1           0           0           0           0           0           0           1
 AtZEff=  -0.0000000  -0.0000000  -0.0000000  -0.0000000  -0.0000000  -0.0000000  -0.0000000  -0.0000000  -0.0000000  -0.0000000
 NQMom=    0.0000000   0.0000000   0.0000000   0.0000000   0.0000000   0.0000000   0.0000000   0.0000000   0.0000000   0.0000000
 NMagM=    0.0000000   2.7928460   2.7928460   0.0000000   0.0000000   0.0000000   0.0000000   0.0000000   0.0000000   2.7928460
 AtZNuc=   6.0000000   1.0000000   1.0000000   6.0000000   6.0000000   6.0000000   6.0000000   6.0000000   6.0000000   1.0000000

  Atom        41          42          43          44          45
 IAtWgt=           1           1           1           1           1
 AtmWgt=   1.0078250   1.0078250   1.0078250   1.0078250   1.0078250
 NucSpn=           1           1           1           1           1
 AtZEff=  -0.0000000  -0.0000000  -0.0000000  -0.0000000  -0.0000000
 NQMom=    0.0000000   0.0000000   0.0000000   0.0000000   0.0000000
 NMagM=    2.7928460   2.7928460   2.7928460   2.7928460   2.7928460
 AtZNuc=   1.0000000   1.0000000   1.0000000   1.0000000   1.0000000
 Leave Link  101 at Fri Mar 12 22:19:12 2021, MaxMem=  2684354560 cpu:               9.8 elap:               0.6
 (Enter /opt/g16avx/l103.exe)

 GradGradGradGradGradGradGradGradGradGradGradGradGradGradGradGradGradGrad
 Berny optimization.
 Initialization pass.
                           ----------------------------
                           !    Initial Parameters    !
                           ! (Angstroms and Degrees)  !
 --------------------------                            --------------------------
 ! Name  Definition              Value          Derivative Info.                !
 --------------------------------------------------------------------------------
 ! R1    R(1,2)                  1.4424         estimate D2E/DX2                !
 ! R2    R(1,3)                  1.4435         estimate D2E/DX2                !
 ! R3    R(1,45)                 1.0            estimate D2E/DX2                !
 ! R4    R(2,4)                  1.0981         estimate D2E/DX2                !
 ! R5    R(2,5)                  1.1076         estimate D2E/DX2                !
 ! R6    R(2,6)                  1.534          estimate D2E/DX2                !
 ! R7    R(3,7)                  1.0956         estimate D2E/DX2                !
 ! R8    R(3,8)                  1.107          estimate D2E/DX2                !
 ! R9    R(3,9)                  1.5384         estimate D2E/DX2                !
 ! R10   R(6,10)                 1.5578         estimate D2E/DX2                !
 ! R11   R(6,11)                 1.5474         estimate D2E/DX2                !
 ! R12   R(6,20)                 1.5198         estimate D2E/DX2                !
 ! R13   R(9,11)                 1.5614         estimate D2E/DX2                !
 ! R14   R(9,12)                 1.5495         estimate D2E/DX2                !
 ! R15   R(9,24)                 1.516          estimate D2E/DX2                !
 ! R16   R(10,12)                1.5391         estimate D2E/DX2                !
 ! R17   R(10,13)                1.1021         estimate D2E/DX2                !
 ! R18   R(10,15)                1.4602         estimate D2E/DX2                !
 ! R19   R(11,16)                1.1029         estimate D2E/DX2                !
 ! R20   R(11,19)                1.4457         estimate D2E/DX2                !
 ! R21   R(12,17)                1.0988         estimate D2E/DX2                !
 ! R22   R(12,18)                1.0992         estimate D2E/DX2                !
 ! R23   R(14,15)                1.0166         estimate D2E/DX2                !
 ! R24   R(15,28)                1.4479         estimate D2E/DX2                !
 ! R25   R(19,28)                1.4459         estimate D2E/DX2                !
 ! R26   R(19,31)                1.4376         estimate D2E/DX2                !
 ! R27   R(20,21)                1.0977         estimate D2E/DX2                !
 ! R28   R(20,22)                1.1026         estimate D2E/DX2                !
 ! R29   R(20,23)                1.102          estimate D2E/DX2                !
 ! R30   R(24,25)                1.0981         estimate D2E/DX2                !
 ! R31   R(24,26)                1.1007         estimate D2E/DX2                !
 ! R32   R(24,27)                1.1022         estimate D2E/DX2                !
 ! R33   R(28,29)                1.1098         estimate D2E/DX2                !
 ! R34   R(28,30)                1.1023         estimate D2E/DX2                !
 ! R35   R(31,32)                1.1052         estimate D2E/DX2                !
 ! R36   R(31,33)                1.1033         estimate D2E/DX2                !
 ! R37   R(31,34)                1.516          estimate D2E/DX2                !
 ! R38   R(34,35)                1.4007         estimate D2E/DX2                !
 ! R39   R(34,36)                1.3981         estimate D2E/DX2                !
 ! R40   R(35,37)                1.3931         estimate D2E/DX2                !
 ! R41   R(35,40)                1.0938         estimate D2E/DX2                !
 ! R42   R(36,38)                1.3946         estimate D2E/DX2                !
 ! R43   R(36,41)                1.0944         estimate D2E/DX2                !
 ! R44   R(37,39)                1.3955         estimate D2E/DX2                !
 ! R45   R(37,42)                1.0932         estimate D2E/DX2                !
 ! R46   R(38,39)                1.3938         estimate D2E/DX2                !
 ! R47   R(38,43)                1.0932         estimate D2E/DX2                !
 ! R48   R(39,44)                1.0929         estimate D2E/DX2                !
 ! A1    A(2,1,3)              115.5811         estimate D2E/DX2                !
 ! A2    A(2,1,45)             122.2094         estimate D2E/DX2                !
 ! A3    A(3,1,45)             122.2094         estimate D2E/DX2                !
 ! A4    A(1,2,4)              107.7098         estimate D2E/DX2                !
 ! A5    A(1,2,5)              109.5865         estimate D2E/DX2                !
 ! A6    A(1,2,6)              113.9959         estimate D2E/DX2                !
 ! A7    A(4,2,5)              107.2033         estimate D2E/DX2                !
 ! A8    A(4,2,6)              110.568          estimate D2E/DX2                !
 ! A9    A(5,2,6)              107.5758         estimate D2E/DX2                !
 ! A10   A(1,3,7)              108.7763         estimate D2E/DX2                !
 ! A11   A(1,3,8)              110.227          estimate D2E/DX2                !
 ! A12   A(1,3,9)              110.4027         estimate D2E/DX2                !
 ! A13   A(7,3,8)              107.6313         estimate D2E/DX2                !
 ! A14   A(7,3,9)              110.0635         estimate D2E/DX2                !
 ! A15   A(8,3,9)              109.6913         estimate D2E/DX2                !
 ! A16   A(2,6,10)             113.6485         estimate D2E/DX2                !
 ! A17   A(2,6,11)             110.7681         estimate D2E/DX2                !
 ! A18   A(2,6,20)             106.9485         estimate D2E/DX2                !
 ! A19   A(10,6,11)             97.1005         estimate D2E/DX2                !
 ! A20   A(10,6,20)            114.0466         estimate D2E/DX2                !
 ! A21   A(11,6,20)            114.3083         estimate D2E/DX2                !
 ! A22   A(3,9,11)             107.2936         estimate D2E/DX2                !
 ! A23   A(3,9,12)             107.7558         estimate D2E/DX2                !
 ! A24   A(3,9,24)             109.0707         estimate D2E/DX2                !
 ! A25   A(11,9,12)            102.658          estimate D2E/DX2                !
 ! A26   A(11,9,24)            115.4512         estimate D2E/DX2                !
 ! A27   A(12,9,24)            114.1014         estimate D2E/DX2                !
 ! A28   A(6,10,12)            103.8439         estimate D2E/DX2                !
 ! A29   A(6,10,13)            112.2411         estimate D2E/DX2                !
 ! A30   A(6,10,15)            110.5857         estimate D2E/DX2                !
 ! A31   A(12,10,13)           112.7883         estimate D2E/DX2                !
 ! A32   A(12,10,15)           108.5843         estimate D2E/DX2                !
 ! A33   A(13,10,15)           108.6958         estimate D2E/DX2                !
 ! A34   A(6,11,9)             100.0485         estimate D2E/DX2                !
 ! A35   A(6,11,16)            112.5423         estimate D2E/DX2                !
 ! A36   A(6,11,19)            108.5009         estimate D2E/DX2                !
 ! A37   A(9,11,16)            110.8945         estimate D2E/DX2                !
 ! A38   A(9,11,19)            116.6726         estimate D2E/DX2                !
 ! A39   A(16,11,19)           108.0844         estimate D2E/DX2                !
 ! A40   A(9,12,10)            105.358          estimate D2E/DX2                !
 ! A41   A(9,12,17)            111.2034         estimate D2E/DX2                !
 ! A42   A(9,12,18)            112.1804         estimate D2E/DX2                !
 ! A43   A(10,12,17)           111.487          estimate D2E/DX2                !
 ! A44   A(10,12,18)           110.0537         estimate D2E/DX2                !
 ! A45   A(17,12,18)           106.6429         estimate D2E/DX2                !
 ! A46   A(10,15,14)           109.1277         estimate D2E/DX2                !
 ! A47   A(10,15,28)           112.6624         estimate D2E/DX2                !
 ! A48   A(14,15,28)           109.5636         estimate D2E/DX2                !
 ! A49   A(11,19,28)           115.8785         estimate D2E/DX2                !
 ! A50   A(11,19,31)           121.4123         estimate D2E/DX2                !
 ! A51   A(28,19,31)           119.9182         estimate D2E/DX2                !
 ! A52   A(6,20,21)            111.7085         estimate D2E/DX2                !
 ! A53   A(6,20,22)            111.1339         estimate D2E/DX2                !
 ! A54   A(6,20,23)            110.7196         estimate D2E/DX2                !
 ! A55   A(21,20,22)           108.7617         estimate D2E/DX2                !
 ! A56   A(21,20,23)           107.0171         estimate D2E/DX2                !
 ! A57   A(22,20,23)           107.3096         estimate D2E/DX2                !
 ! A58   A(9,24,25)            111.8237         estimate D2E/DX2                !
 ! A59   A(9,24,26)            111.6377         estimate D2E/DX2                !
 ! A60   A(9,24,27)            110.3579         estimate D2E/DX2                !
 ! A61   A(25,24,26)           107.1743         estimate D2E/DX2                !
 ! A62   A(25,24,27)           107.9476         estimate D2E/DX2                !
 ! A63   A(26,24,27)           107.7126         estimate D2E/DX2                !
 ! A64   A(15,28,19)           112.976          estimate D2E/DX2                !
 ! A65   A(15,28,29)           108.2749         estimate D2E/DX2                !
 ! A66   A(15,28,30)           108.8146         estimate D2E/DX2                !
 ! A67   A(19,28,29)           111.8165         estimate D2E/DX2                !
 ! A68   A(19,28,30)           108.4765         estimate D2E/DX2                !
 ! A69   A(29,28,30)           106.2286         estimate D2E/DX2                !
 ! A70   A(19,31,32)           107.5438         estimate D2E/DX2                !
 ! A71   A(19,31,33)           108.2832         estimate D2E/DX2                !
 ! A72   A(19,31,34)           117.1987         estimate D2E/DX2                !
 ! A73   A(32,31,33)           106.3616         estimate D2E/DX2                !
 ! A74   A(32,31,34)           108.4777         estimate D2E/DX2                !
 ! A75   A(33,31,34)           108.4697         estimate D2E/DX2                !
 ! A76   A(31,34,35)           120.7846         estimate D2E/DX2                !
 ! A77   A(31,34,36)           120.8008         estimate D2E/DX2                !
 ! A78   A(35,34,36)           118.3825         estimate D2E/DX2                !
 ! A79   A(34,35,37)           120.8798         estimate D2E/DX2                !
 ! A80   A(34,35,40)           119.5356         estimate D2E/DX2                !
 ! A81   A(37,35,40)           119.5845         estimate D2E/DX2                !
 ! A82   A(34,36,38)           120.9994         estimate D2E/DX2                !
 ! A83   A(34,36,41)           119.2694         estimate D2E/DX2                !
 ! A84   A(38,36,41)           119.7308         estimate D2E/DX2                !
 ! A85   A(35,37,39)           120.1153         estimate D2E/DX2                !
 ! A86   A(35,37,42)           119.8784         estimate D2E/DX2                !
 ! A87   A(39,37,42)           120.0054         estimate D2E/DX2                !
 ! A88   A(36,38,39)           120.027          estimate D2E/DX2                !
 ! A89   A(36,38,43)           119.913          estimate D2E/DX2                !
 ! A90   A(39,38,43)           120.06           estimate D2E/DX2                !
 ! A91   A(37,39,38)           119.5816         estimate D2E/DX2                !
 ! A92   A(37,39,44)           120.1881         estimate D2E/DX2                !
 ! A93   A(38,39,44)           120.2278         estimate D2E/DX2                !
 ! D1    D(3,1,2,4)            166.1343         estimate D2E/DX2                !
 ! D2    D(3,1,2,5)            -77.5595         estimate D2E/DX2                !
 ! D3    D(3,1,2,6)             43.0528         estimate D2E/DX2                !
 ! D4    D(45,1,2,4)           -13.8657         estimate D2E/DX2                !
 ! D5    D(45,1,2,5)           102.4405         estimate D2E/DX2                !
 ! D6    D(45,1,2,6)          -136.9472         estimate D2E/DX2                !
 ! D7    D(2,1,3,7)           -170.0927         estimate D2E/DX2                !
 ! D8    D(2,1,3,8)             72.119          estimate D2E/DX2                !
 ! D9    D(2,1,3,9)            -49.2256         estimate D2E/DX2                !
 ! D10   D(45,1,3,7)             9.9073         estimate D2E/DX2                !
 ! D11   D(45,1,3,8)          -107.881          estimate D2E/DX2                !
 ! D12   D(45,1,3,9)           130.7744         estimate D2E/DX2                !
 ! D13   D(1,2,6,10)            55.4684         estimate D2E/DX2                !
 ! D14   D(1,2,6,11)           -52.6139         estimate D2E/DX2                !
 ! D15   D(1,2,6,20)          -177.7703         estimate D2E/DX2                !
 ! D16   D(4,2,6,10)           -66.0437         estimate D2E/DX2                !
 ! D17   D(4,2,6,11)          -174.126          estimate D2E/DX2                !
 ! D18   D(4,2,6,20)            60.7176         estimate D2E/DX2                !
 ! D19   D(5,2,6,10)           177.1981         estimate D2E/DX2                !
 ! D20   D(5,2,6,11)            69.1158         estimate D2E/DX2                !
 ! D21   D(5,2,6,20)           -56.0406         estimate D2E/DX2                !
 ! D22   D(1,3,9,11)            65.1926         estimate D2E/DX2                !
 ! D23   D(1,3,9,12)           -44.7258         estimate D2E/DX2                !
 ! D24   D(1,3,9,24)          -169.085          estimate D2E/DX2                !
 ! D25   D(7,3,9,11)          -174.7113         estimate D2E/DX2                !
 ! D26   D(7,3,9,12)            75.3703         estimate D2E/DX2                !
 ! D27   D(7,3,9,24)           -48.9888         estimate D2E/DX2                !
 ! D28   D(8,3,9,11)           -56.4694         estimate D2E/DX2                !
 ! D29   D(8,3,9,12)          -166.3878         estimate D2E/DX2                !
 ! D30   D(8,3,9,24)            69.2531         estimate D2E/DX2                !
 ! D31   D(2,6,10,12)          -70.1758         estimate D2E/DX2                !
 ! D32   D(2,6,10,13)           51.9483         estimate D2E/DX2                !
 ! D33   D(2,6,10,15)          173.5171         estimate D2E/DX2                !
 ! D34   D(11,6,10,12)          46.2239         estimate D2E/DX2                !
 ! D35   D(11,6,10,13)         168.3481         estimate D2E/DX2                !
 ! D36   D(11,6,10,15)         -70.0832         estimate D2E/DX2                !
 ! D37   D(20,6,10,12)         166.8766         estimate D2E/DX2                !
 ! D38   D(20,6,10,13)         -70.9992         estimate D2E/DX2                !
 ! D39   D(20,6,10,15)          50.5695         estimate D2E/DX2                !
 ! D40   D(2,6,11,9)            64.2948         estimate D2E/DX2                !
 ! D41   D(2,6,11,16)          -53.4619         estimate D2E/DX2                !
 ! D42   D(2,6,11,19)         -173.0199         estimate D2E/DX2                !
 ! D43   D(10,6,11,9)          -54.3614         estimate D2E/DX2                !
 ! D44   D(10,6,11,16)        -172.1182         estimate D2E/DX2                !
 ! D45   D(10,6,11,19)          68.3238         estimate D2E/DX2                !
 ! D46   D(20,6,11,9)         -174.8151         estimate D2E/DX2                !
 ! D47   D(20,6,11,16)          67.4281         estimate D2E/DX2                !
 ! D48   D(20,6,11,19)         -52.1299         estimate D2E/DX2                !
 ! D49   D(2,6,20,21)          169.5951         estimate D2E/DX2                !
 ! D50   D(2,6,20,22)          -68.7339         estimate D2E/DX2                !
 ! D51   D(2,6,20,23)           50.4271         estimate D2E/DX2                !
 ! D52   D(10,6,20,21)         -63.8802         estimate D2E/DX2                !
 ! D53   D(10,6,20,22)          57.7908         estimate D2E/DX2                !
 ! D54   D(10,6,20,23)         176.9517         estimate D2E/DX2                !
 ! D55   D(11,6,20,21)          46.6115         estimate D2E/DX2                !
 ! D56   D(11,6,20,22)         168.2826         estimate D2E/DX2                !
 ! D57   D(11,6,20,23)         -72.5565         estimate D2E/DX2                !
 ! D58   D(3,9,11,6)           -70.5428         estimate D2E/DX2                !
 ! D59   D(3,9,11,16)           48.4297         estimate D2E/DX2                !
 ! D60   D(3,9,11,19)          172.7356         estimate D2E/DX2                !
 ! D61   D(12,9,11,6)           42.8654         estimate D2E/DX2                !
 ! D62   D(12,9,11,16)         161.8379         estimate D2E/DX2                !
 ! D63   D(12,9,11,19)         -73.8562         estimate D2E/DX2                !
 ! D64   D(24,9,11,6)          167.6433         estimate D2E/DX2                !
 ! D65   D(24,9,11,16)         -73.3842         estimate D2E/DX2                !
 ! D66   D(24,9,11,19)          50.9217         estimate D2E/DX2                !
 ! D67   D(3,9,12,10)           99.3672         estimate D2E/DX2                !
 ! D68   D(3,9,12,17)          -21.5628         estimate D2E/DX2                !
 ! D69   D(3,9,12,18)         -140.8977         estimate D2E/DX2                !
 ! D70   D(11,9,12,10)         -13.7012         estimate D2E/DX2                !
 ! D71   D(11,9,12,17)        -134.6311         estimate D2E/DX2                !
 ! D72   D(11,9,12,18)         106.034          estimate D2E/DX2                !
 ! D73   D(24,9,12,10)        -139.3616         estimate D2E/DX2                !
 ! D74   D(24,9,12,17)          99.7085         estimate D2E/DX2                !
 ! D75   D(24,9,12,18)         -19.6264         estimate D2E/DX2                !
 ! D76   D(3,9,24,25)         -176.3539         estimate D2E/DX2                !
 ! D77   D(3,9,24,26)          -56.2849         estimate D2E/DX2                !
 ! D78   D(3,9,24,27)           63.4711         estimate D2E/DX2                !
 ! D79   D(11,9,24,25)         -55.4987         estimate D2E/DX2                !
 ! D80   D(11,9,24,26)          64.5702         estimate D2E/DX2                !
 ! D81   D(11,9,24,27)        -175.6738         estimate D2E/DX2                !
 ! D82   D(12,9,24,25)          63.1061         estimate D2E/DX2                !
 ! D83   D(12,9,24,26)        -176.8249         estimate D2E/DX2                !
 ! D84   D(12,9,24,27)         -57.0689         estimate D2E/DX2                !
 ! D85   D(6,10,12,9)          -20.3418         estimate D2E/DX2                !
 ! D86   D(6,10,12,17)         100.4024         estimate D2E/DX2                !
 ! D87   D(6,10,12,18)        -141.4752         estimate D2E/DX2                !
 ! D88   D(13,10,12,9)        -142.1022         estimate D2E/DX2                !
 ! D89   D(13,10,12,17)        -21.3579         estimate D2E/DX2                !
 ! D90   D(13,10,12,18)         96.7645         estimate D2E/DX2                !
 ! D91   D(15,10,12,9)          97.3625         estimate D2E/DX2                !
 ! D92   D(15,10,12,17)       -141.8933         estimate D2E/DX2                !
 ! D93   D(15,10,12,18)        -23.7708         estimate D2E/DX2                !
 ! D94   D(6,10,15,14)         -61.9603         estimate D2E/DX2                !
 ! D95   D(6,10,15,28)          59.97           estimate D2E/DX2                !
 ! D96   D(12,10,15,14)       -175.2851         estimate D2E/DX2                !
 ! D97   D(12,10,15,28)        -53.3549         estimate D2E/DX2                !
 ! D98   D(13,10,15,14)         61.6779         estimate D2E/DX2                !
 ! D99   D(13,10,15,28)       -176.3919         estimate D2E/DX2                !
 ! D100  D(6,11,19,28)         -60.2625         estimate D2E/DX2                !
 ! D101  D(6,11,19,31)         138.6865         estimate D2E/DX2                !
 ! D102  D(9,11,19,28)          51.6996         estimate D2E/DX2                !
 ! D103  D(9,11,19,31)        -109.3514         estimate D2E/DX2                !
 ! D104  D(16,11,19,28)        177.4252         estimate D2E/DX2                !
 ! D105  D(16,11,19,31)         16.3742         estimate D2E/DX2                !
 ! D106  D(10,15,28,19)        -41.6655         estimate D2E/DX2                !
 ! D107  D(10,15,28,29)         82.7444         estimate D2E/DX2                !
 ! D108  D(10,15,28,30)       -162.2035         estimate D2E/DX2                !
 ! D109  D(14,15,28,19)         80.018          estimate D2E/DX2                !
 ! D110  D(14,15,28,29)       -155.5721         estimate D2E/DX2                !
 ! D111  D(14,15,28,30)        -40.52           estimate D2E/DX2                !
 ! D112  D(11,19,28,15)         43.0566         estimate D2E/DX2                !
 ! D113  D(11,19,28,29)        -79.3954         estimate D2E/DX2                !
 ! D114  D(11,19,28,30)        163.7872         estimate D2E/DX2                !
 ! D115  D(31,19,28,15)       -155.5908         estimate D2E/DX2                !
 ! D116  D(31,19,28,29)         81.9572         estimate D2E/DX2                !
 ! D117  D(31,19,28,30)        -34.8602         estimate D2E/DX2                !
 ! D118  D(11,19,31,32)       -156.8141         estimate D2E/DX2                !
 ! D119  D(11,19,31,33)        -42.2572         estimate D2E/DX2                !
 ! D120  D(11,19,31,34)         80.7616         estimate D2E/DX2                !
 ! D121  D(28,19,31,32)         42.8851         estimate D2E/DX2                !
 ! D122  D(28,19,31,33)        157.4421         estimate D2E/DX2                !
 ! D123  D(28,19,31,34)        -79.5391         estimate D2E/DX2                !
 ! D124  D(19,31,34,35)         74.7469         estimate D2E/DX2                !
 ! D125  D(19,31,34,36)       -103.1593         estimate D2E/DX2                !
 ! D126  D(32,31,34,35)        -47.1949         estimate D2E/DX2                !
 ! D127  D(32,31,34,36)        134.8989         estimate D2E/DX2                !
 ! D128  D(33,31,34,35)       -162.3298         estimate D2E/DX2                !
 ! D129  D(33,31,34,36)         19.764          estimate D2E/DX2                !
 ! D130  D(31,34,35,37)       -176.6564         estimate D2E/DX2                !
 ! D131  D(31,34,35,40)          3.3575         estimate D2E/DX2                !
 ! D132  D(36,34,35,37)          1.2993         estimate D2E/DX2                !
 ! D133  D(36,34,35,40)       -178.6867         estimate D2E/DX2                !
 ! D134  D(31,34,36,38)        176.9163         estimate D2E/DX2                !
 ! D135  D(31,34,36,41)         -2.8423         estimate D2E/DX2                !
 ! D136  D(35,34,36,38)         -1.0392         estimate D2E/DX2                !
 ! D137  D(35,34,36,41)        179.2022         estimate D2E/DX2                !
 ! D138  D(34,35,37,39)         -0.541          estimate D2E/DX2                !
 ! D139  D(34,35,37,42)        179.7939         estimate D2E/DX2                !
 ! D140  D(40,35,37,39)        179.445          estimate D2E/DX2                !
 ! D141  D(40,35,37,42)         -0.2201         estimate D2E/DX2                !
 ! D142  D(34,36,38,39)          0.0192         estimate D2E/DX2                !
 ! D143  D(34,36,38,43)       -179.9498         estimate D2E/DX2                !
 ! D144  D(41,36,38,39)        179.7767         estimate D2E/DX2                !
 ! D145  D(41,36,38,43)         -0.1923         estimate D2E/DX2                !
 ! D146  D(35,37,39,38)         -0.5044         estimate D2E/DX2                !
 ! D147  D(35,37,39,44)       -179.9296         estimate D2E/DX2                !
 ! D148  D(42,37,39,38)        179.1602         estimate D2E/DX2                !
 ! D149  D(42,37,39,44)         -0.2649         estimate D2E/DX2                !
 ! D150  D(36,38,39,37)          0.7624         estimate D2E/DX2                !
 ! D151  D(36,38,39,44)       -179.8126         estimate D2E/DX2                !
 ! D152  D(43,38,39,37)       -179.2686         estimate D2E/DX2                !
 ! D153  D(43,38,39,44)          0.1563         estimate D2E/DX2                !
 --------------------------------------------------------------------------------
 Trust Radius=3.00D-01 FncErr=1.00D-07 GrdErr=1.00D-06 EigMax=2.50D+02 EigMin=1.00D-04
 Number of steps in this run=    270 maximum allowed number of steps=    270.
 GradGradGradGradGradGradGradGradGradGradGradGradGradGradGradGradGradGrad

 Leave Link  103 at Fri Mar 12 22:19:12 2021, MaxMem=  2684354560 cpu:               1.1 elap:               0.1
 (Enter /opt/g16avx/l202.exe)
                          Input orientation:                          
 ---------------------------------------------------------------------
 Center     Atomic      Atomic             Coordinates (Angstroms)
 Number     Number       Type             X           Y           Z
 ---------------------------------------------------------------------
      1          7           0        1.862097    0.348867   -0.836450
      2          6           0        1.325957    1.634717   -1.210248
      3          6           0        0.895730   -0.715549   -0.706798
      4          1           0        2.105448    2.386873   -1.029908
      5          1           0        1.106518    1.644149   -2.295884
      6          6           0        0.034043    2.010081   -0.473255
      7          1           0        1.386241   -1.583856   -0.253158
      8          1           0        0.527539   -1.021880   -1.704825
      9          6           0       -0.287581   -0.262295    0.165608
     10          6           0        0.166348    1.972417    1.078494
     11          6           0       -1.018704    0.883473   -0.602861
     12          6           0        0.290529    0.472620    1.401229
     13          1           0        1.027182    2.559156    1.438127
     14          1           0       -1.178363    3.456039    1.437853
     15          7           0       -1.046307    2.485436    1.709778
     16          1           0       -1.204843    0.597321   -1.651641
     17          1           0        1.335546    0.184950    1.581786
     18          1           0       -0.264048    0.237761    2.320812
     19          7           0       -2.264100    1.352141   -0.037759
     20          6           0       -0.415939    3.353166   -1.023990
     21          1           0       -1.427644    3.612283   -0.685901
     22          1           0        0.275351    4.157826   -0.723473
     23          1           0       -0.438809    3.334954   -2.125642
     24          6           0       -1.142296   -1.467313    0.505856
     25          1           0       -2.037595   -1.185001    1.075645
     26          1           0       -1.485048   -1.990567   -0.399851
     27          1           0       -0.567174   -2.186691    1.111364
     28          6           0       -2.224156    1.719424    1.360120
     29          1           0       -2.269699    0.829585    2.021840
     30          1           0       -3.119691    2.319888    1.589271
     31          6           0       -3.524942    1.076331   -0.670900
     32          1           0       -4.243151    1.845015   -0.331969
     33          1           0       -3.405199    1.220723   -1.758176
     34          6           0       -4.135833   -0.290503   -0.432319
     35          6           0       -4.735783   -0.603426    0.794065
     36          6           0       -4.075539   -1.283059   -1.415135
     37          6           0       -5.236078   -1.880079    1.040170
     38          6           0       -4.579438   -2.561457   -1.176781
     39          6           0       -5.154472   -2.865858    0.055800
     40          1           0       -4.812499    0.165214    1.568509
     41          1           0       -3.621735   -1.050387   -2.383431
     42          1           0       -5.698109   -2.107367    2.004471
     43          1           0       -4.522287   -3.324328   -1.957723
     44          1           0       -5.547604   -3.867458    0.247181
     45          1           0        2.838767    0.204350   -0.677611
 ---------------------------------------------------------------------
                    Distance matrix (angstroms):
                    1          2          3          4          5
     1  N    0.000000
     2  C    1.442422   0.000000
     3  C    1.443488   2.441784   0.000000
     4  H    2.061581   1.098120   3.345570   0.000000
     5  H    2.092511   1.107632   2.852683   1.775442   0.000000
     6  C    2.496663   1.533981   2.868119   2.177740   2.146179
     7  H    2.074147   3.358403   1.095604   4.109415   3.830273
     8  H    2.100968   2.817727   1.107006   3.816400   2.791465
     9  C    2.449236   2.845196   1.538427   3.764829   3.411302
    10  C    3.029602   2.587871   3.308236   2.894346   3.518253
    11  C    2.939283   2.535887   2.496544   3.493266   2.821617
    12  C    2.737215   3.040130   2.494352   3.587300   3.963201
    13  H    3.279659   2.820947   3.916845   2.698803   3.845305
    14  H    4.906258   4.074466   5.128697   4.244570   4.737554
    15  N    4.416675   3.857190   4.456193   4.177218   4.624689
    16  H    3.183141   2.770554   2.651181   3.814063   2.617878
    17  H    2.480321   3.146009   2.498390   3.501737   4.149463
    18  H    3.808036   4.116793   3.379395   4.632550   5.016997
    19  N    4.320876   3.787227   3.835033   4.598693   4.067611
    20  C    3.774974   2.453968   4.286669   2.700213   2.618459
    21  H    4.636264   3.430456   4.912091   3.755357   3.589927
    22  H    4.127795   2.776113   4.912732   2.565040   3.079267
    23  H    3.984081   2.615942   4.494517   2.927923   2.296920
    24  C    3.758547   4.319708   2.487816   5.268886   4.752695
    25  H    4.606132   4.948697   3.464374   5.861437   5.408950
    26  H    4.106939   4.658452   2.718086   5.696544   4.849981
    27  H    4.015519   4.855614   2.758634   5.713619   5.393136
    28  C    4.837438   4.383751   4.464855   4.990310   4.946253
    29  H    5.047044   4.901364   4.455653   5.556998   5.541218
    30  H    5.881093   5.298165   5.532578   5.845226   5.780302
    31  C    5.438456   4.912628   4.770164   5.792038   4.940993
    32  H    6.306109   5.641858   5.753702   6.409792   5.702304
    33  H    5.417944   4.780738   4.832446   5.679570   4.563333
    34  C    6.045435   5.843184   5.056939   6.817554   5.890501
    35  C    6.862759   6.765445   5.829159   7.685780   6.980821
    36  C    6.184948   6.142602   5.053447   7.198708   6.016476
    37  C    7.672939   7.776791   6.481288   8.740143   7.986111
    38  C    7.076665   7.244494   5.797045   8.318368   7.160280
    39  C    7.769351   7.990871   6.466091   9.026427   8.066634
    40  H    7.097027   6.896490   6.207789   7.716575   7.221880
    41  H    5.867152   5.750287   4.830187   6.815233   5.442845
    42  H    8.441601   8.583421   7.264079   9.502692   8.880871
    43  H    7.450502   7.704077   6.142105   8.798041   7.515555
    44  H    8.593912   8.924341   7.236101   9.965782   9.006794
    45  H    1.000000   2.149011   2.149990   2.329223   2.773539
                    6          7          8          9         10
     6  C    0.000000
     7  H    3.846201   0.000000
     8  H    3.309545   1.777786   0.000000
     9  C    2.382285   2.173377   2.177133   0.000000
    10  C    1.557834   3.988548   4.104039   2.456288   0.000000
    11  C    1.547359   3.463202   2.689900   1.561368   2.327467
    12  C    2.437881   2.857739   3.455036   1.549539   1.539146
    13  H    2.222879   4.489311   4.790784   3.362810   1.102104
    14  H    2.685713   5.902309   5.730470   4.029654   2.034335
    15  N    2.481683   5.131232   5.141767   3.241936   1.460219
    16  H    2.217955   3.664288   2.371874   2.209684   3.350327
    17  H    3.041086   2.549169   3.593206   2.200029   2.194394
    18  H    3.322166   3.559082   4.291743   2.212581   2.176609
    19  N    2.429815   4.689506   4.025957   2.560154   2.745513
    20  C    1.519760   5.311894   4.527109   3.808304   2.581853
    21  H    2.179174   5.924954   5.131902   4.127610   2.888436
    22  H    2.175695   5.867042   5.277879   4.543658   2.834604
    23  H    2.170083   5.570610   4.482512   4.267657   3.534008
    24  C    3.799303   2.642571   2.806042   1.516039   3.724541
    25  H    4.110879   3.694246   3.786494   2.177637   3.850540
    26  H    4.279978   2.903659   2.586855   2.177291   4.540689
    27  H    4.526077   2.457877   3.238225   2.162389   4.223424
    28  C    2.923219   5.152600   4.947773   3.017348   2.420295
    29  H    3.595316   4.936214   5.014030   2.926874   2.851367
    30  H    3.781009   6.239967   5.943128   4.088439   3.343603
    31  C    3.684742   5.600966   4.679112   3.601690   4.181982
    32  H    4.282709   6.591921   5.732652   4.509420   4.631341
    33  H    3.755329   5.752273   4.527532   3.952193   4.622520
    34  C    4.762586   5.674342   4.888888   3.894529   5.090395
    35  C    5.584600   6.287853   5.841414   4.505311   5.544976
    36  C    5.349820   5.592111   4.619574   4.229578   5.899993
    37  C    6.722944   6.753929   6.441334   5.279177   6.635465
    38  C    6.532849   6.115399   5.360069   5.050563   6.940084
    39  C    7.139704   6.672324   6.227785   5.520618   7.264016
    40  H    5.573267   6.693437   6.374944   4.756656   5.319306
    41  H    5.136142   5.468316   4.204497   4.270278   5.955824
    42  H    7.479978   7.453789   7.327745   6.004958   7.203744
    43  H    7.170754   6.391047   5.555715   5.640684   7.697884
    44  H    8.137523   7.317334   6.986774   6.377437   8.212458
    45  H    3.341991   2.342578   2.810798   3.271518   3.654010
                   11         12         13         14         15
    11  C    0.000000
    12  C    2.428841   0.000000
    13  H    3.340538   2.213064   0.000000
    14  H    3.287568   3.325624   2.380930   0.000000
    15  N    2.813423   2.435931   2.092507   1.016588   0.000000
    16  H    1.102937   3.401721   4.286887   4.209269   3.858659
    17  H    3.286808   1.098825   2.398454   4.128011   3.313886
    18  H    3.087768   1.099249   2.799157   3.460188   2.457099
    19  N    1.445684   3.061106   3.803638   2.789739   2.412729
    20  C    2.576831   3.831231   2.962275   2.579253   2.936632
    21  H    2.760531   4.143153   3.412732   2.144035   2.674786
    22  H    3.522856   4.253861   2.791686   2.697614   3.234869
    23  H    2.943620   4.600403   3.930832   3.641442   3.975070
    24  C    2.602061   2.572551   4.667785   5.010919   4.133142
    25  H    2.852035   2.876434   4.852109   4.733786   3.854463
    26  H    2.918698   3.530418   5.512662   5.756451   4.967659
    27  H    3.545187   2.809201   5.017151   5.685116   4.734600
    28  C    2.450556   2.807107   3.358933   2.028684   1.447882
    29  H    2.908083   2.658449   3.768496   2.903501   2.082286
    30  H    3.358999   3.882958   4.156519   2.254445   2.083470
    31  C    2.514568   4.383606   5.231501   3.951744   3.714409
    32  H    3.375649   5.043976   5.605323   3.888521   3.846905
    33  H    2.672798   4.919340   5.626167   4.491106   4.380705
    34  C    3.335236   4.851488   6.186748   5.126475   4.673284
    35  C    4.240159   5.175938   6.605188   5.435895   4.898146
    36  C    3.833783   5.484238   6.995819   6.244375   5.756986
    37  C    5.303114   6.017387   7.687236   6.715457   6.087715
    38  C    4.987560   6.290337   8.030729   7.390120   6.803408
    39  C    5.621023   6.527147   8.339931   7.595123   6.946151
    40  H    4.429856   5.115015   6.312672   4.904441   4.425787
    41  H    3.699461   5.652346   7.017516   6.393759   5.990762
    42  H    6.135156   6.548589   8.205286   7.190316   6.543695
    43  H    5.640597   6.990177   8.771761   8.287650   7.699764
    44  H    6.618523   7.365589   9.270789   8.610550   7.922129
    45  H    3.917510   3.299555   3.647369   5.584443   5.098704
                   16         17         18         19         20
    16  H    0.000000
    17  H    4.132636   0.000000
    18  H    4.098141   1.762853   0.000000
    19  N    2.072774   4.116153   3.287082   0.000000
    20  C    2.934450   4.460422   4.573458   2.896973   0.000000
    21  H    3.173687   4.952195   4.667084   2.495594   1.097722
    22  H    3.966064   4.714019   4.992548   3.845892   1.102574
    23  H    2.882034   5.178405   5.421633   3.409177   1.102040
    24  C    2.986874   3.166591   2.640580   3.082739   5.109309
    25  H    3.362772   3.675735   2.592327   2.779939   5.256729
    26  H    2.888366   4.076213   3.722673   3.451337   5.485255
    27  H    3.973857   3.076739   2.726283   4.089422   5.939076
    28  C    3.371768   3.882683   2.638234   1.445876   3.409214
    29  H    3.831753   3.688766   2.112410   2.124863   4.368291
    30  H    4.139733   4.940360   3.609031   2.077450   3.899625
    31  C    2.564013   5.430792   4.504106   1.437589   3.869696
    32  H    3.539716   6.127000   5.045173   2.060613   4.171446
    33  H    2.289442   5.890911   5.241296   2.068626   3.744598
    34  C    3.296313   5.849672   4.780116   2.521377   5.240612
    35  C    4.459911   6.172769   4.799476   3.259661   6.133596
    36  C    3.439863   6.357392   5.549564   3.481775   5.919480
    37  C    5.443732   6.909699   5.553951   4.521264   7.408195
    38  C    4.646640   7.080924   6.220239   4.687687   7.234697
    39  C    5.523453   7.331875   6.219242   5.114149   7.892775
    40  H    4.855025   6.148091   4.610817   3.237782   6.017793
    41  H    3.015265   6.467120   5.921426   3.621808   5.613955
    42  H    6.393116   7.409837   5.926948   5.285009   8.178650
    43  H    5.145722   7.691382   7.009061   5.536699   7.894484
    44  H    6.511478   8.098206   7.004908   6.173071   8.949149
    45  H    4.177792   2.713839   4.314988   5.269354   4.541821
                   21         22         23         24         25
    21  H    0.000000
    22  H    1.788637   0.000000
    23  H    1.768491   1.775731   0.000000
    24  C    5.225323   5.929853   5.521000   0.000000
    25  H    5.146748   6.093632   5.764924   1.098144   0.000000
    26  H    5.610441   6.403630   5.695098   1.100717   1.769557
    27  H    6.131775   6.658031   6.401816   1.102230   1.779550
    28  C    2.898887   4.066288   4.236501   3.472100   2.924280
    29  H    3.972949   5.009113   5.179830   2.974052   2.237792
    30  H    3.116042   4.500346   4.692341   4.407581   3.703916
    31  C    3.290887   4.892913   4.091683   3.678571   3.221218
    32  H    3.342990   5.091093   4.462085   4.613975   4.003355
    33  H    3.283300   4.821165   3.661212   4.179965   3.960857
    34  C    4.757135   6.271439   5.447868   3.350570   2.734353
    35  C    5.559342   7.076998   6.519165   3.707090   2.774479
    36  C    5.613155   7.000848   5.920867   3.511135   3.219754
    37  C    6.902864   8.363168   7.760974   4.149086   3.273329
    38  C    6.949089   8.302001   7.267242   3.980247   3.664563
    39  C    7.510371   8.911924   8.089885   4.272708   3.685144
    40  H    5.331219   6.861512   6.543941   4.155089   3.125074
    41  H    5.425508   6.713287   5.424822   3.830068   3.806945
    42  H    7.628196   9.076153   8.621887   4.838486   3.887524
    43  H    7.701358   8.973479   7.813388   4.576250   4.466737
    44  H    8.590183   9.962638   9.143567   5.023380   4.494674
    45  H    5.460434   4.712025   4.758149   4.477043   5.364989
                   26         27         28         29         30
    26  H    0.000000
    27  H    1.778968   0.000000
    28  C    4.172267   4.250318   0.000000
    29  H    3.799148   3.581268   1.109847   0.000000
    30  H    5.020825   5.201249   1.102293   1.769352   0.000000
    31  C    3.693305   4.751018   2.496128   2.981169   2.611328
    32  H    4.724768   5.643640   2.637286   3.235124   2.275704
    33  H    3.980504   5.281961   3.371548   3.966216   3.534838
    34  C    3.149275   4.325947   3.302598   3.280236   3.454492
    35  C    3.730533   4.470426   3.467610   3.105241   3.433638
    36  C    2.870891   4.416828   4.488270   4.420081   4.787622
    37  C    4.019464   4.679503   4.704303   4.135863   4.735011
    38  C    3.241109   4.634039   5.505376   5.202426   5.797364
    39  C    3.799793   4.755921   5.595785   5.083653   5.777874
    40  H    4.426484   4.874754   3.026304   2.666970   2.740192
    41  H    3.063325   4.778611   4.862022   4.976817   5.233848
    42  H    4.852246   5.208688   5.208442   4.514420   5.140157
    43  H    3.664793   5.133852   6.459793   6.177869   6.812167
    44  H    4.521696   5.326957   6.595240   5.996356   6.780798
    45  H    4.856973   4.529674   5.664008   5.811573   6.716955
                   31         32         33         34         35
    31  C    0.000000
    32  H    1.105248   0.000000
    33  H    1.103339   1.768041   0.000000
    34  C    1.516029   2.140566   2.139048   0.000000
    35  C    2.536502   2.739617   3.407625   1.400671   0.000000
    36  C    2.534515   3.314542   2.614566   1.398117   2.403828
    37  C    3.820485   4.092065   4.560464   2.430126   1.393092
    38  C    3.821175   4.499310   4.002717   2.430687   2.782546
    39  C    4.327160   4.813855   4.801105   2.812177   2.416389
    40  H    2.739140   2.599559   3.763167   2.160756   1.093826
    41  H    2.732226   3.602500   2.365538   2.156052   3.396669
    42  H    4.692142   4.816345   5.521878   3.417550   2.157080
    43  H    4.692165   5.426150   4.684570   3.417645   3.875723
    44  H    5.419879   5.888069   5.873750   3.905051   3.407644
    45  H    6.423176   7.277693   6.417768   6.996435   7.758360
                   36         37         38         39         40
    36  C    0.000000
    37  C    2.780613   0.000000
    38  C    1.394643   2.410461   0.000000
    39  C    2.415160   1.395494   1.393765   0.000000
    40  H    3.397460   2.154480   3.876296   3.404795   0.000000
    41  H    1.094382   3.874989   2.157900   3.405153   4.302724
    42  H    3.873748   1.093165   3.402644   2.160594   2.477699
    43  H    2.158880   3.403339   1.093210   2.159659   4.969451
    44  H    3.407255   2.162303   2.161169   1.092878   4.306824
    45  H    7.110834   8.514619   7.932757   8.593948   7.974237
                   41         42         43         44         45
    41  H    0.000000
    42  H    4.968120   0.000000
    43  H    2.482545   4.308426   0.000000
    44  H    4.308710   2.491714   2.491559   0.000000
    45  H    6.798697   9.242070   8.262891   9.368355   0.000000
 Stoichiometry    C17H25N3
 Framework group  C1[X(C17H25N3)]
 Deg. of freedom   129
 Full point group                 C1      NOp   1
 Largest Abelian subgroup         C1      NOp   1
 Largest concise Abelian subgroup C1      NOp   1
                         Standard orientation:                         
 ---------------------------------------------------------------------
 Center     Atomic      Atomic             Coordinates (Angstroms)
 Number     Number       Type             X           Y           Z
 ---------------------------------------------------------------------
      1          7           0        3.026526    2.000409    0.169393
      2          6           0        3.263987    0.800075    0.933194
      3          6           0        1.639693    2.337315   -0.047046
      4          1           0        4.321048    0.529344    0.809934
      5          1           0        3.102035    1.006581    2.009287
      6          6           0        2.357875   -0.375445    0.545622
      7          1           0        1.584585    3.152416   -0.777061
      8          1           0        1.182203    2.698557    0.894054
      9          6           0        0.864627    1.112892   -0.563589
     10          6           0        2.423015   -0.742386   -0.966978
     11          6           0        0.869297    0.045882    0.576297
     12          6           0        1.723886    0.439039   -1.662983
     13          1           0        3.457735   -0.891712   -1.315819
     14          1           0        2.068891   -2.729655   -0.714235
     15          7           0        1.659101   -1.957907   -1.233783
     16          1           0        0.577490    0.497674    1.539210
     17          1           0        2.451932    1.144665   -2.086606
     18          1           0        1.113649    0.074905   -2.501651
     19          7           0        0.055201   -1.130399    0.367466
     20          6           0        2.701777   -1.525830    1.477296
     21          1           0        1.977770   -2.346658    1.393346
     22          1           0        3.710084   -1.919492    1.267492
     23          1           0        2.691728   -1.193094    2.527856
     24          6           0       -0.506224    1.557002   -1.034660
     25          1           0       -1.123367    0.706725   -1.354165
     26          1           0       -1.059291    2.079235   -0.239067
     27          1           0       -0.413043    2.248622   -1.887825
     28          6           0        0.260471   -1.826009   -0.883353
     29          1           0       -0.263328   -1.325776   -1.724282
     30          1           0       -0.181578   -2.832342   -0.800063
     31          6           0       -1.147737   -1.352772    1.122551
     32          1           0       -1.352040   -2.438917    1.111498
     33          1           0       -0.950760   -1.084252    2.174432
     34          6           0       -2.396666   -0.624276    0.666683
     35          6           0       -3.092161   -1.039773   -0.475914
     36          6           0       -2.857231    0.504394    1.351309
     37          6           0       -4.199606   -0.330887   -0.936078
     38          6           0       -3.968521    1.215197    0.898738
     39          6           0       -4.638500    0.803494   -0.252005
     40          1           0       -2.761136   -1.932940   -1.013623
     41          1           0       -2.332598    0.834098    2.253377
     42          1           0       -4.728266   -0.667903   -1.831594
     43          1           0       -4.312920    2.095775    1.447447
     44          1           0       -5.507847    1.359846   -0.611297
     45          1           0        3.773338    2.562089   -0.186679
 ---------------------------------------------------------------------
 Rotational constants (GHZ):           0.6831584           0.2508423           0.2267435
 Leave Link  202 at Fri Mar 12 22:19:13 2021, MaxMem=  2684354560 cpu:               2.0 elap:               0.1
 (Enter /opt/g16avx/l301.exe)
 Standard basis: def2SVP (5D, 7F)
 Ernie: Thresh=  0.10000D-02 Tol=  0.10000D-05 Strict=F.
 There are   425 symmetry adapted cartesian basis functions of A   symmetry.
 There are   405 symmetry adapted basis functions of A   symmetry.
   405 basis functions,   675 primitive gaussians,   425 cartesian basis functions
    74 alpha electrons       74 beta electrons
       nuclear repulsion energy      1712.6137445692 Hartrees.
 IExCor= 1009 DFT=T Ex+Corr=PBE1PBE ExCW=0 ScaHFX=  0.250000
 ScaDFX=  0.750000  0.750000  1.000000  1.000000 ScalE2=  1.000000  1.000000
 IRadAn=      5 IRanWt=     -1 IRanGd=            0 ICorTp=0 IEmpDi=141
 NAtoms=   45 NActive=   45 NUniq=   45 SFac= 1.00D+00 NAtFMM=   60 NAOKFM=F Big=F
 Integral buffers will be    131072 words long.
 Raffenetti 2 integral format.
 Two-electron integral symmetry is turned on.
 R6Disp:  Grimme-D3(BJ) Dispersion energy=       -0.0573987029 Hartrees.
 Nuclear repulsion after empirical dispersion term =     1712.5563458663 Hartrees.
 ------------------------------------------------------------------------------
 Polarizable Continuum Model (PCM)
 =================================
 Model                : PCM.
 Atomic radii         : SMD-Coulomb.
 Polarization charges : Total charges.
 Charge compensation  : None.
 Solution method      : On-the-fly selection.
 Cavity type          : VdW (van der Waals Surface) (Alpha=1.000).
 Cavity algorithm     : GePol (No added spheres)
                        Default sphere list used, NSphG=   45.
                        Lebedev-Laikov grids with approx.  5.0 points / Ang**2.
                        Smoothing algorithm: York/Karplus (Gamma=1.0000).
                        Polarization charges: spherical gaussians, with
                                              point-specific exponents (IZeta= 3).
                        Self-potential: point-specific (ISelfS= 7).
                        Self-field    : sphere-specific E.n sum rule (ISelfD= 2).
 1st derivatives      : Analytical E(r).r(x)/FMM algorithm (CHGder, D1EAlg=3).
                        Cavity 1st derivative terms included.
 Solvent              : Water, Eps=  78.355300 Eps(inf)=   1.777849
 ------------------------------------------------------------------------------
 GePol: Number of generator spheres                  =      45
 GePol: Total number of spheres                      =      45
 GePol: Number of exposed spheres                    =      45 (100.00%)
 GePol: Number of points                             =    2826
 GePol: Average weight of points                     =       0.11
 GePol: Minimum weight of points                     =   0.60D-09
 GePol: Maximum weight of points                     =    0.17992
 GePol: Number of points with low weight             =     192
 GePol: Fraction of low-weight points (<1% of avg)   =       6.79%
 GePol: Cavity surface area                          =    299.424 Ang**2
 GePol: Cavity volume                                =    293.486 Ang**3
 ------------------------------------------------------------------------------
 Atomic radii for non-electrostatic terms: SMD-CDS.
 ------------------------------------------------------------------------------
 PCM non-electrostatic energy =         0.0037946650 Hartrees.
 Nuclear repulsion after PCM non-electrostatic terms =     1712.5601405313 Hartrees.
 Leave Link  301 at Fri Mar 12 22:19:13 2021, MaxMem=  2684354560 cpu:               3.6 elap:               0.2
 (Enter /opt/g16avx/l302.exe)
 NPDir=0 NMtPBC=     1 NCelOv=     1 NCel=       1 NClECP=     1 NCelD=      1
         NCelK=      1 NCelE2=     1 NClLst=     1 CellRange=     0.0.
 One-electron integrals computed using PRISM.
 One-electron integral symmetry used in STVInt
   1 Symmetry operations used in ECPInt.
 ECPInt:  NShTT=   19110 NPrTT=   67130 LenC2=   18095 LenP2D=   46395.
 LDataN:  DoStor=T MaxTD1= 4 Len=   56
 NBasis=   405 RedAO= T EigKep=  2.79D-04  NBF=   405
 NBsUse=   405 1.00D-06 EigRej= -1.00D+00 NBFU=   405
 Precomputing XC quadrature grid using
 IXCGrd= 4 IRadAn=           5 IRanWt=          -1 IRanGd=           0 AccXCQ= 0.00D+00.
 Generated NRdTot=       0 NPtTot=           0 NUsed=           0 NTot=          32
 NSgBfM=   424   424   424   424   424 MxSgAt=    45 MxSgA2=    45.
 Leave Link  302 at Fri Mar 12 22:19:16 2021, MaxMem=  2684354560 cpu:              57.1 elap:               3.4
 (Enter /opt/g16avx/l303.exe)
 DipDrv:  MaxL=1.
 Leave Link  303 at Fri Mar 12 22:19:16 2021, MaxMem=  2684354560 cpu:               5.6 elap:               0.4
 (Enter /opt/g16avx/l401.exe)
 ExpMin= 1.22D-01 ExpMax= 1.71D+03 ExpMxC= 2.58D+02 IAcc=3 IRadAn=         5 AccDes= 0.00D+00
 Harris functional with IExCor= 1009 and IRadAn=       5 diagonalized for initial guess.
 HarFok:  IExCor= 1009 AccDes= 0.00D+00 IRadAn=         5 IDoV= 1 UseB2=F ITyADJ=14
 ICtDFT=  3500011 ScaDFX=  1.000000  1.000000  1.000000  1.000000
 FoFCou: FMM=F IPFlag=           0 FMFlag=      100000 FMFlg1=           0
         NFxFlg=           0 DoJE=T BraDBF=F KetDBF=T FulRan=T
         wScrn=  0.000000 ICntrl=       500 IOpCl=  0 I1Cent=   200000004 NGrid=           0
         NMat0=    1 NMatS0=      1 NMatT0=    0 NMatD0=    1 NMtDS0=    0 NMtDT0=    0
 Petite list used in FoFCou.
 Harris En= -825.785333697436    
 JPrj=0 DoOrth=F DoCkMO=F.
 Leave Link  401 at Fri Mar 12 22:19:22 2021, MaxMem=  2684354560 cpu:              90.3 elap:               5.7
 (Enter /opt/g16avx/l502.exe)
 Integral symmetry usage will be decided dynamically.
 Closed shell SCF:
 Using DIIS extrapolation, IDIIS=  1040.
 NGot=  2684354560 LenX=  2683980093 LenY=  2683799027
 Requested convergence on RMS density matrix=1.00D-08 within 128 cycles.
 Requested convergence on MAX density matrix=1.00D-06.
 Requested convergence on             energy=1.00D-06.
 No special actions if energy rises.
 Fock matrices will be formed incrementally for  20 cycles.

 Cycle   1  Pass 1  IDiag  1:
 FoFJK:  IHMeth= 1 ICntrl=       0 DoSepK=F KAlg= 0 I1Cent=           0 FoldK=F
 IRaf= 900000000 NMat=       1 IRICut=       1 DoRegI=T DoRafI=F ISym2E= 0 IDoP0=0 IntGTp=1.
 FoFCou: FMM=F IPFlag=           0 FMFlag=      100000 FMFlg1=           0
         NFxFlg=           0 DoJE=F BraDBF=F KetDBF=F FulRan=T
         wScrn=  0.000000 ICntrl=         0 IOpCl=  0 I1Cent=           0 NGrid=           0
         NMat0=    1 NMatS0=      1 NMatT0=    0 NMatD0=    1 NMtDS0=    0 NMtDT0=    0
 Symmetry not used in FoFCou.
 Inv3:  Mode=1 IEnd=    23958828.
 Iteration    1 A*A^-1 deviation from unit magnitude is 3.22D-15 for   2138.
 Iteration    1 A*A^-1 deviation from orthogonality  is 1.98D-15 for   2033    309.
 Iteration    1 A^-1*A deviation from unit magnitude is 3.00D-15 for   2138.
 Iteration    1 A^-1*A deviation from orthogonality  is 2.56D-14 for   2797   1318.
 E= -825.208016946099    
 DIIS: error= 1.62D-02 at cycle   1 NSaved=   1.
 NSaved= 1 IEnMin= 1 EnMin= -825.208016946099     IErMin= 1 ErrMin= 1.62D-02
 ErrMax= 1.62D-02  0.00D+00 EMaxC= 1.00D-01 BMatC= 3.51D-01 BMatP= 3.51D-01
 IDIUse=3 WtCom= 8.38D-01 WtEn= 1.62D-01
 Coeff-Com:  0.100D+01
 Coeff-En:   0.100D+01
 Coeff:      0.100D+01
 Gap=     0.197 Goal=   None    Shift=    0.000
 GapD=    0.197 DampG=1.000 DampE=0.500 DampFc=0.5000 IDamp=-1.
 Damping current iteration by 5.00D-01
 RMSDP=4.14D-03 MaxDP=1.44D-01              OVMax= 1.32D-01

 Cycle   2  Pass 1  IDiag  1:
 RMSU=  2.01D-03    CP:  9.69D-01
 E= -825.399007342785     Delta-E=       -0.190990396686 Rises=F Damp=T
 DIIS: error= 3.81D-03 at cycle   2 NSaved=   2.
 NSaved= 2 IEnMin= 2 EnMin= -825.399007342785     IErMin= 2 ErrMin= 3.81D-03
 ErrMax= 3.81D-03  0.00D+00 EMaxC= 1.00D-01 BMatC= 1.88D-02 BMatP= 3.51D-01
 IDIUse=3 WtCom= 9.62D-01 WtEn= 3.81D-02
 Coeff-Com: -0.315D-02 0.100D+01
 Coeff-En:   0.000D+00 0.100D+01
 Coeff:     -0.303D-02 0.100D+01
 Gap=     0.213 Goal=   None    Shift=    0.000
 RMSDP=1.47D-03 MaxDP=6.64D-02 DE=-1.91D-01 OVMax= 8.21D-02

 Cycle   3  Pass 1  IDiag  1:
 RMSU=  1.47D-03    CP:  9.60D-01  9.88D-01
 E= -825.597271833924     Delta-E=       -0.198264491140 Rises=F Damp=F
 DIIS: error= 2.94D-03 at cycle   3 NSaved=   3.
 NSaved= 3 IEnMin= 3 EnMin= -825.597271833924     IErMin= 3 ErrMin= 2.94D-03
 ErrMax= 2.94D-03  0.00D+00 EMaxC= 1.00D-01 BMatC= 7.60D-03 BMatP= 1.88D-02
 IDIUse=3 WtCom= 9.71D-01 WtEn= 2.94D-02
 Coeff-Com: -0.400D-01 0.378D+00 0.662D+00
 Coeff-En:   0.000D+00 0.000D+00 0.100D+01
 Coeff:     -0.389D-01 0.367D+00 0.672D+00
 Gap=     0.184 Goal=   None    Shift=    0.000
 RMSDP=5.99D-04 MaxDP=4.90D-02 DE=-1.98D-01 OVMax= 1.48D-02

 Cycle   4  Pass 1  IDiag  1:
 RMSU=  3.77D-04    CP:  9.58D-01  1.08D+00  7.08D-01
 E= -825.602642733352     Delta-E=       -0.005370899427 Rises=F Damp=F
 DIIS: error= 1.30D-03 at cycle   4 NSaved=   4.
 NSaved= 4 IEnMin= 4 EnMin= -825.602642733352     IErMin= 4 ErrMin= 1.30D-03
 ErrMax= 1.30D-03  0.00D+00 EMaxC= 1.00D-01 BMatC= 1.68D-03 BMatP= 7.60D-03
 IDIUse=3 WtCom= 9.87D-01 WtEn= 1.30D-02
 Coeff-Com: -0.194D-01 0.828D-01 0.346D+00 0.591D+00
 Coeff-En:   0.000D+00 0.000D+00 0.162D+00 0.838D+00
 Coeff:     -0.192D-01 0.818D-01 0.343D+00 0.594D+00
 Gap=     0.190 Goal=   None    Shift=    0.000
 RMSDP=1.74D-04 MaxDP=1.06D-02 DE=-5.37D-03 OVMax= 5.69D-03

 Cycle   5  Pass 1  IDiag  1:
 RMSU=  6.73D-05    CP:  9.58D-01  1.06D+00  7.84D-01  7.12D-01
 E= -825.604175752125     Delta-E=       -0.001533018774 Rises=F Damp=F
 DIIS: error= 1.70D-04 at cycle   5 NSaved=   5.
 NSaved= 5 IEnMin= 5 EnMin= -825.604175752125     IErMin= 5 ErrMin= 1.70D-04
 ErrMax= 1.70D-04  0.00D+00 EMaxC= 1.00D-01 BMatC= 4.71D-05 BMatP= 1.68D-03
 IDIUse=3 WtCom= 9.98D-01 WtEn= 1.70D-03
 Coeff-Com: -0.479D-02 0.929D-02 0.832D-01 0.223D+00 0.689D+00
 Coeff-En:   0.000D+00 0.000D+00 0.000D+00 0.000D+00 0.100D+01
 Coeff:     -0.478D-02 0.927D-02 0.831D-01 0.223D+00 0.690D+00
 Gap=     0.189 Goal=   None    Shift=    0.000
 RMSDP=2.45D-05 MaxDP=1.51D-03 DE=-1.53D-03 OVMax= 9.94D-04

 Cycle   6  Pass 1  IDiag  1:
 RMSU=  1.50D-05    CP:  9.58D-01  1.06D+00  7.82D-01  7.33D-01  7.56D-01
 E= -825.604217453676     Delta-E=       -0.000041701550 Rises=F Damp=F
 DIIS: error= 5.10D-05 at cycle   6 NSaved=   6.
 NSaved= 6 IEnMin= 6 EnMin= -825.604217453676     IErMin= 6 ErrMin= 5.10D-05
 ErrMax= 5.10D-05  0.00D+00 EMaxC= 1.00D-01 BMatC= 4.13D-06 BMatP= 4.71D-05
 IDIUse=1 WtCom= 1.00D+00 WtEn= 0.00D+00
 Coeff-Com: -0.183D-02 0.196D-02 0.301D-01 0.922D-01 0.348D+00 0.530D+00
 Coeff:     -0.183D-02 0.196D-02 0.301D-01 0.922D-01 0.348D+00 0.530D+00
 Gap=     0.189 Goal=   None    Shift=    0.000
 RMSDP=7.18D-06 MaxDP=3.52D-04 DE=-4.17D-05 OVMax= 3.62D-04

 Cycle   7  Pass 1  IDiag  1:
 RMSU=  5.05D-06    CP:  9.58D-01  1.06D+00  7.83D-01  7.32D-01  7.70D-01
                    CP:  6.95D-01
 E= -825.604221247215     Delta-E=       -0.000003793540 Rises=F Damp=F
 DIIS: error= 1.55D-05 at cycle   7 NSaved=   7.
 NSaved= 7 IEnMin= 7 EnMin= -825.604221247215     IErMin= 7 ErrMin= 1.55D-05
 ErrMax= 1.55D-05  0.00D+00 EMaxC= 1.00D-01 BMatC= 1.40D-07 BMatP= 4.13D-06
 IDIUse=1 WtCom= 1.00D+00 WtEn= 0.00D+00
 Coeff-Com: -0.394D-03 0.150D-03 0.578D-02 0.200D-01 0.865D-01 0.205D+00
 Coeff-Com:  0.683D+00
 Coeff:     -0.394D-03 0.150D-03 0.578D-02 0.200D-01 0.865D-01 0.205D+00
 Coeff:      0.683D+00
 Gap=     0.189 Goal=   None    Shift=    0.000
 RMSDP=1.66D-06 MaxDP=7.62D-05 DE=-3.79D-06 OVMax= 8.41D-05

 Cycle   8  Pass 1  IDiag  1:
 RMSU=  1.34D-06    CP:  9.58D-01  1.06D+00  7.83D-01  7.33D-01  7.71D-01
                    CP:  7.39D-01  8.94D-01
 E= -825.604221351507     Delta-E=       -0.000000104292 Rises=F Damp=F
 DIIS: error= 7.12D-06 at cycle   8 NSaved=   8.
 NSaved= 8 IEnMin= 8 EnMin= -825.604221351507     IErMin= 8 ErrMin= 7.12D-06
 ErrMax= 7.12D-06  0.00D+00 EMaxC= 1.00D-01 BMatC= 2.57D-08 BMatP= 1.40D-07
 IDIUse=1 WtCom= 1.00D+00 WtEn= 0.00D+00
 Coeff-Com: -0.543D-05-0.133D-03-0.402D-03 0.122D-03 0.636D-02 0.481D-01
 Coeff-Com:  0.344D+00 0.602D+00
 Coeff:     -0.543D-05-0.133D-03-0.402D-03 0.122D-03 0.636D-02 0.481D-01
 Coeff:      0.344D+00 0.602D+00
 Gap=     0.189 Goal=   None    Shift=    0.000
 RMSDP=5.80D-07 MaxDP=2.86D-05 DE=-1.04D-07 OVMax= 4.13D-05

 Cycle   9  Pass 1  IDiag  1:
 RMSU=  3.67D-07    CP:  9.58D-01  1.06D+00  7.83D-01  7.33D-01  7.73D-01
                    CP:  7.46D-01  9.46D-01  7.68D-01
 E= -825.604221375062     Delta-E=       -0.000000023555 Rises=F Damp=F
 DIIS: error= 1.21D-06 at cycle   9 NSaved=   9.
 NSaved= 9 IEnMin= 9 EnMin= -825.604221375062     IErMin= 9 ErrMin= 1.21D-06
 ErrMax= 1.21D-06  0.00D+00 EMaxC= 1.00D-01 BMatC= 1.09D-09 BMatP= 2.57D-08
 IDIUse=1 WtCom= 1.00D+00 WtEn= 0.00D+00
 Coeff-Com:  0.255D-04-0.585D-04-0.637D-03-0.156D-02-0.467D-02 0.146D-02
 Coeff-Com:  0.703D-01 0.227D+00 0.708D+00
 Coeff:      0.255D-04-0.585D-04-0.637D-03-0.156D-02-0.467D-02 0.146D-02
 Coeff:      0.703D-01 0.227D+00 0.708D+00
 Gap=     0.189 Goal=   None    Shift=    0.000
 RMSDP=1.41D-07 MaxDP=6.03D-06 DE=-2.36D-08 OVMax= 7.40D-06

 Cycle  10  Pass 1  IDiag  1:
 RMSU=  8.23D-08    CP:  9.58D-01  1.06D+00  7.83D-01  7.33D-01  7.73D-01
                    CP:  7.49D-01  9.55D-01  8.10D-01  8.23D-01
 E= -825.604221375989     Delta-E=       -0.000000000927 Rises=F Damp=F
 DIIS: error= 3.09D-07 at cycle  10 NSaved=  10.
 NSaved=10 IEnMin=10 EnMin= -825.604221375989     IErMin=10 ErrMin= 3.09D-07
 ErrMax= 3.09D-07  0.00D+00 EMaxC= 1.00D-01 BMatC= 1.22D-10 BMatP= 1.09D-09
 IDIUse=1 WtCom= 1.00D+00 WtEn= 0.00D+00
 Coeff-Com:  0.110D-04-0.158D-04-0.274D-03-0.725D-03-0.248D-02-0.179D-02
 Coeff-Com:  0.143D-01 0.767D-01 0.339D+00 0.575D+00
 Coeff:      0.110D-04-0.158D-04-0.274D-03-0.725D-03-0.248D-02-0.179D-02
 Coeff:      0.143D-01 0.767D-01 0.339D+00 0.575D+00
 Gap=     0.189 Goal=   None    Shift=    0.000
 RMSDP=4.07D-08 MaxDP=2.21D-06 DE=-9.27D-10 OVMax= 3.13D-06

 Cycle  11  Pass 1  IDiag  1:
 RMSU=  2.84D-08    CP:  9.58D-01  1.06D+00  7.83D-01  7.33D-01  7.73D-01
                    CP:  7.49D-01  9.58D-01  8.15D-01  8.54D-01  7.45D-01
 E= -825.604221376108     Delta-E=       -0.000000000119 Rises=F Damp=F
 DIIS: error= 8.75D-08 at cycle  11 NSaved=  11.
 NSaved=11 IEnMin=11 EnMin= -825.604221376108     IErMin=11 ErrMin= 8.75D-08
 ErrMax= 8.75D-08  0.00D+00 EMaxC= 1.00D-01 BMatC= 5.95D-12 BMatP= 1.22D-10
 IDIUse=1 WtCom= 1.00D+00 WtEn= 0.00D+00
 Coeff-Com:  0.166D-05-0.428D-06-0.476D-04-0.136D-03-0.513D-03-0.815D-03
 Coeff-Com: -0.136D-02 0.812D-02 0.591D-01 0.215D+00 0.721D+00
 Coeff:      0.166D-05-0.428D-06-0.476D-04-0.136D-03-0.513D-03-0.815D-03
 Coeff:     -0.136D-02 0.812D-02 0.591D-01 0.215D+00 0.721D+00
 Gap=     0.189 Goal=   None    Shift=    0.000
 RMSDP=1.18D-08 MaxDP=3.85D-07 DE=-1.19D-10 OVMax= 9.26D-07

 Cycle  12  Pass 1  IDiag  1:
 RMSU=  8.33D-09    CP:  9.58D-01  1.06D+00  7.83D-01  7.33D-01  7.73D-01
                    CP:  7.49D-01  9.58D-01  8.18D-01  8.62D-01  7.97D-01
                    CP:  8.85D-01
 E= -825.604221376107     Delta-E=        0.000000000001 Rises=F Damp=F
 DIIS: error= 3.24D-08 at cycle  12 NSaved=  12.
 NSaved=12 IEnMin=11 EnMin= -825.604221376108     IErMin=12 ErrMin= 3.24D-08
 ErrMax= 3.24D-08  0.00D+00 EMaxC= 1.00D-01 BMatC= 9.72D-13 BMatP= 5.95D-12
 IDIUse=1 WtCom= 1.00D+00 WtEn= 0.00D+00
 Coeff-Com: -0.368D-07 0.918D-06-0.289D-05-0.122D-04-0.619D-04-0.256D-03
 Coeff-Com: -0.178D-02-0.161D-02 0.369D-02 0.642D-01 0.367D+00 0.569D+00
 Coeff:     -0.368D-07 0.918D-06-0.289D-05-0.122D-04-0.619D-04-0.256D-03
 Coeff:     -0.178D-02-0.161D-02 0.369D-02 0.642D-01 0.367D+00 0.569D+00
 Gap=     0.189 Goal=   None    Shift=    0.000
 RMSDP=3.86D-09 MaxDP=1.56D-07 DE= 6.82D-13 OVMax= 3.70D-07

 Error on total polarization charges =  0.05588
 SCF Done:  E(RPBE1PBE) =  -825.604221376     A.U. after   12 cycles
            NFock= 12  Conv=0.39D-08     -V/T= 2.0112
 KE= 8.164400703709D+02 PE=-5.338424902199D+03 EE= 1.983820469920D+03
 SMD-CDS (non-electrostatic) energy       (kcal/mol) =       2.38
 (included in total energy above)
 Leave Link  502 at Fri Mar 12 22:21:44 2021, MaxMem=  2684354560 cpu:            2739.7 elap:             142.1
 (Enter /opt/g16avx/l601.exe)
 Copying SCF densities to generalized density rwf, IOpCl= 0 IROHF=0.

 **********************************************************************

            Population analysis using the SCF density.

 **********************************************************************

 Orbital symmetries:
       Occupied  (A) (A) (A) (A) (A) (A) (A) (A) (A) (A) (A) (A)
                 (A) (A) (A) (A) (A) (A) (A) (A) (A) (A) (A) (A)
                 (A) (A) (A) (A) (A) (A) (A) (A) (A) (A) (A) (A)
                 (A) (A) (A) (A) (A) (A) (A) (A) (A) (A) (A) (A)
                 (A) (A) (A) (A) (A) (A) (A) (A) (A) (A) (A) (A)
                 (A) (A) (A) (A) (A) (A) (A) (A) (A) (A) (A) (A)
                 (A) (A)
       Virtual   (A) (A) (A) (A) (A) (A) (A) (A) (A) (A) (A) (A)
                 (A) (A) (A) (A) (A) (A) (A) (A) (A) (A) (A) (A)
                 (A) (A) (A) (A) (A) (A) (A) (A) (A) (A) (A) (A)
                 (A) (A) (A) (A) (A) (A) (A) (A) (A) (A) (A) (A)
                 (A) (A) (A) (A) (A) (A) (A) (A) (A) (A) (A) (A)
                 (A) (A) (A) (A) (A) (A) (A) (A) (A) (A) (A) (A)
                 (A) (A) (A) (A) (A) (A) (A) (A) (A) (A) (A) (A)
                 (A) (A) (A) (A) (A) (A) (A) (A) (A) (A) (A) (A)
                 (A) (A) (A) (A) (A) (A) (A) (A) (A) (A) (A) (A)
                 (A) (A) (A) (A) (A) (A) (A) (A) (A) (A) (A) (A)
                 (A) (A) (A) (A) (A) (A) (A) (A) (A) (A) (A) (A)
                 (A) (A) (A) (A) (A) (A) (A) (A) (A) (A) (A) (A)
                 (A) (A) (A) (A) (A) (A) (A) (A) (A) (A) (A) (A)
                 (A) (A) (A) (A) (A) (A) (A) (A) (A) (A) (A) (A)
                 (A) (A) (A) (A) (A) (A) (A) (A) (A) (A) (A) (A)
                 (A) (A) (A) (A) (A) (A) (A) (A) (A) (A) (A) (A)
                 (A) (A) (A) (A) (A) (A) (A) (A) (A) (A) (A) (A)
                 (A) (A) (A) (A) (A) (A) (A) (A) (A) (A) (A) (A)
                 (A) (A) (A) (A) (A) (A) (A) (A) (A) (A) (A) (A)
                 (A) (A) (A) (A) (A) (A) (A) (A) (A) (A) (A) (A)
                 (A) (A) (A) (A) (A) (A) (A) (A) (A) (A) (A) (A)
                 (A) (A) (A) (A) (A) (A) (A) (A) (A) (A) (A) (A)
                 (A) (A) (A) (A) (A) (A) (A) (A) (A) (A) (A) (A)
                 (A) (A) (A) (A) (A) (A) (A) (A) (A) (A) (A) (A)
                 (A) (A) (A) (A) (A) (A) (A) (A) (A) (A) (A) (A)
                 (A) (A) (A) (A) (A) (A) (A) (A) (A) (A) (A) (A)
                 (A) (A) (A) (A) (A) (A) (A) (A) (A) (A) (A) (A)
                 (A) (A) (A) (A) (A) (A) (A)
 The electronic state is 1-A.
 Alpha  occ. eigenvalues --  -14.36783 -14.36334 -14.35198 -10.26653 -10.25256
 Alpha  occ. eigenvalues --  -10.24611 -10.24521 -10.24128 -10.23949 -10.23505
 Alpha  occ. eigenvalues --  -10.23498 -10.23465 -10.23373 -10.23222 -10.23200
 Alpha  occ. eigenvalues --  -10.22396 -10.22170 -10.20924 -10.20921 -10.20814
 Alpha  occ. eigenvalues --   -0.96894  -0.91373  -0.89204  -0.86858  -0.82442
 Alpha  occ. eigenvalues --   -0.79291  -0.77433  -0.75690  -0.72174  -0.69895
 Alpha  occ. eigenvalues --   -0.69324  -0.67866  -0.65342  -0.62018  -0.61249
 Alpha  occ. eigenvalues --   -0.60477  -0.58027  -0.54683  -0.54006  -0.52380
 Alpha  occ. eigenvalues --   -0.51312  -0.50995  -0.48199  -0.47693  -0.46278
 Alpha  occ. eigenvalues --   -0.46058  -0.44952  -0.44556  -0.44069  -0.42928
 Alpha  occ. eigenvalues --   -0.42691  -0.42415  -0.40830  -0.39891  -0.39710
 Alpha  occ. eigenvalues --   -0.38859  -0.38197  -0.37720  -0.37427  -0.36977
 Alpha  occ. eigenvalues --   -0.36170  -0.35512  -0.34484  -0.34021  -0.33011
 Alpha  occ. eigenvalues --   -0.32759  -0.31571  -0.31140  -0.30738  -0.26545
 Alpha  occ. eigenvalues --   -0.26014  -0.22995  -0.19800  -0.19518
 Alpha virt. eigenvalues --   -0.00576  -0.00218   0.06589   0.08051   0.08593
 Alpha virt. eigenvalues --    0.09368   0.09762   0.10949   0.11614   0.12048
 Alpha virt. eigenvalues --    0.12369   0.13080   0.13676   0.14556   0.14912
[...]
 00000757,-0.00000433,-0.00000080,-0.00000296,0.00000109,0.00000439,0.0
 0000462,-0.00002470,-0.00000126,-0.00003955,-0.00000099,0.00000408,-0.
 00000419,-0.00000293,0.00000030,-0.00000100,0.00000242,-0.00000044,-0.
 00000212,-0.00019127,-0.00016081,-0.00005393,-0.00000371,0.00000273,-0
 .00000433,0.00000055,0.00000628,-0.00000077,-0.00000206,-0.00000335,0.
 00000124,-0.00000049,-0.00000074,0.00000199,-0.00002711,0.00001670,-0.
 00001019,0.00003898,-0.00001665,0.00001164,0.00002194,-0.00000711,-0.0
 0000990,-0.00001325,0.00000489,-0.00000017,-0.00000882,0.00001479,0.00
 017460,0.00003865,0.00004875,-0.00002821,0.00000008,0.00000582,-0.0000
 0958,0.00009180,0.00024221,0.00045567,0.00000231,0.00000045,-0.0000062
 2,-0.00018890,-0.00014643,0.00001652,0.00593521,-0.00361244,0.00171478
 ,0.00006866,-0.00073555,0.00967290,-0.00062151,0.00028274,-0.00058055,
 -0.09152577,-0.02677187,0.11194336,0.00606394,-0.00119174,0.00207052,0
 .00340598,-0.00196211,0.00019553,-0.00326301,0.00142794,-0.00176247,-0
 .00090135,0.00028129,-0.00028157,0.08427032,-0.00000888,0.00000177,0.0
 0000577,0.00000341,-0.00001074,-0.00000932,0.00000274,0.00000362,-0.00
 001484,-0.00000660,-0.00000054,0.00000215,-0.00000059,-0.00000008,0.00
 000222,-0.00001516,0.00001092,0.00001021,-0.00000642,0.00000332,0.0000
 0215,0.00000022,0.00000026,0.00000131,-0.00001425,0.00001349,0.0000196
 7,0.00001989,-0.00000550,0.00000599,0.00010495,-0.00002662,-0.00008334
 ,-0.00000082,0.00000437,0.00000685,-0.00000611,-0.00000163,-0.00000235
 ,-0.00000258,0.00000469,0.00000581,-0.00002656,-0.00002083,-0.00004466
 ,0.00000299,0.00000152,0.00000418,-0.00000393,0.00000019,-0.00000087,0
 .00000197,-0.00000095,-0.00000066,-0.00023459,-0.00009435,-0.00020527,
 -0.00000434,-0.00000013,-0.00000222,-0.00000018,0.00000738,-0.00000130
 ,-0.00000272,-0.00000388,0.00000181,-0.00000117,-0.00000093,0.00000196
 ,-0.00002018,-0.00000058,-0.00003044,0.00000969,-0.00000174,0.00002806
 ,0.00000611,-0.00000176,-0.00000076,-0.00001458,0.00000537,0.00000039,
 0.00000520,0.00006570,0.00012357,-0.00000491,0.00000053,-0.00004205,0.
 00000704,-0.00000270,-0.00000250,0.00000366,0.00056611,0.00134155,0.00
 003054,-0.00002739,-0.00003738,-0.00013273,-0.00039644,0.00018292,-0.0
 0354432,-0.00431621,-0.00047748,-0.01161041,-0.00050190,0.02556950,0.0
 0016330,-0.00103391,-0.00033871,-0.02706798,-0.06694960,0.04808282,-0.
 00145487,-0.00230511,-0.00355742,0.00935596,0.00808754,-0.02059228,0.0
 0153462,0.00108630,0.00012093,0.00026737,0.00004787,0.00017924,0.03125
 195,0.06472299,0.00000946,-0.00000086,-0.00000580,-0.00000267,0.000008
 95,0.00000832,-0.00000439,-0.00000029,0.00001152,0.00000570,0.00000038
 ,-0.00000182,0.00000041,-0.00000001,-0.00000203,0.00001225,-0.00001059
 ,-0.00001269,0.00000475,-0.00000276,-0.00000122,-0.00000017,-0.0000003
 5,-0.00000071,0.00000608,-0.00001395,-0.00000776,-0.00001639,0.0000057
 4,-0.00000360,-0.00007355,0.00002159,0.00006044,0.00000149,-0.00000158
 ,-0.00000734,0.00000534,0.00000170,0.00000163,0.00000219,-0.00000392,-
 0.00000468,0.00002490,0.00001595,0.00003505,-0.00000132,-0.00000279,-0
 .00000471,0.00000407,-0.00000009,0.00000078,-0.00000189,0.00000090,0.0
 0000009,0.00014262,0.00010518,0.00009465,0.00000393,-0.00000028,0.0000
 0304,0.00000030,-0.00000562,0.00000059,0.00000232,0.00000333,-0.000001
 49,0.00000073,0.00000065,-0.00000209,0.00001711,-0.00000127,0.00001877
 ,-0.00001847,0.00000556,-0.00002820,-0.00000557,0.00000449,0.00000961,
 0.00001560,-0.00000608,-0.00000012,-0.00000997,-0.00003889,-0.00010059
 ,0.00000345,-0.00000120,0.00003079,-0.00000247,-0.00000122,0.00000305,
 -0.00019822,-0.00047057,-0.00022857,0.00002514,0.00006541,0.00001039,0
 .00000677,0.00011779,-0.00005629,0.00220559,0.00035507,0.00233814,0.00
 133099,-0.00236938,-0.00087186,-0.00057150,-0.00014186,0.00038130,0.11
 173881,0.04827568,-0.28432269,0.00169294,-0.00444291,-0.00023531,0.008
 81165,0.00721331,-0.01276172,-0.00160316,0.00046803,0.00005832,-0.0003
 0087,0.00019062,-0.00020237,-0.12201906,-0.05041248,0.29603600,-0.0000
 0088,0.00000544,0.00000248,0.00000290,-0.00000873,-0.00000505,-0.00000
 019,0.00000137,-0.00000686,-0.00000335,0.00000043,0.00000131,-0.000000
 62,-0.00000005,0.00000143,-0.00000738,0.00000881,0.00001405,-0.0000037
 6,0.00000126,0.00000048,-0.00000036,0.00000029,0.00000294,-0.00001073,
 0.00000265,0.00001992,0.00001780,-0.00000589,0.00000199,0.00006744,-0.
 00000172,-0.00003717,-0.00000048,0.00000930,-0.00000336,-0.00000460,0.
 00000102,0.00000046,-0.00000429,0.00000131,0.00000347,-0.00001389,-0.0
 0002011,-0.00002032,-0.00000528,-0.00000298,-0.00000162,-0.00000189,0.
 00000055,-0.00000010,0.00000045,-0.00000106,0.00000043,-0.00007317,-0.
 00007967,-0.00008553,-0.00000118,-0.00000010,-0.00000150,-0.00000197,0
 .00000465,0.00000013,-0.00000177,-0.00000146,0.00000114,-0.00000092,-0
 .00000053,0.00000167,0.00000105,0.00001030,-0.00005291,0.00000490,0.00
 000247,0.00001718,0.00002453,0.00000994,0.00004365,0.00000031,0.000005
 18,0.00000132,-0.00002675,0.00002963,-0.00001464,-0.00003204,-0.000056
 50,-0.00001724,0.00000678,-0.00000341,-0.00000292,0.00019206,-0.000157
 44,-0.00025501,-0.00006650,-0.00014962,0.00005247,-0.00001247,0.000024
 19,-0.00000681,0.00525538,-0.00352653,0.00285868,-0.00096924,0.0000808
 7,-0.00005859,0.00469800,-0.00817952,-0.00766877,0.00512835,-0.0024831
 1,0.00414490,-0.04311666,0.00658562,0.01596559,0.00352951,0.00907368,0
 .00868964,-0.00089492,0.00032299,-0.00042642,-0.00318444,0.00160024,-0
 .00155778,0.00008658,0.00039051,0.00041073,0.03263363,-0.00001474,0.00
 000338,0.00001074,0.00000303,-0.00002063,-0.00001930,0.00000391,0.0000
 0408,-0.00002855,-0.00001217,0.00000007,0.00000448,-0.00000065,-0.0000
 0018,0.00000479,-0.00003077,0.00002458,0.00002484,-0.00000982,0.000006
 70,0.00000346,0.00000051,0.00000024,0.00000430,-0.00002470,0.00002210,
 0.00002118,0.00002888,-0.00001079,0.00001073,0.00012329,-0.00007109,-0
 .00012022,0.00000073,0.00000431,0.00001234,-0.00000921,-0.00000244,-0.
 00000390,0.00000023,0.00000912,0.00000877,-0.00005593,-0.00001873,-0.0
 0007206,0.00000436,0.00000714,0.00000998,-0.00000624,0.00000016,-0.000
 00183,0.00000291,-0.00000127,-0.00000053,-0.00046689,-0.00028865,-0.00
 012068,-0.00000753,0.00000319,-0.00000729,0.00000017,0.00001103,-0.000
 00168,-0.00000400,-0.00000639,0.00000303,-0.00000078,-0.00000139,0.000
 00476,-0.00003680,0.00000063,-0.00003283,0.00000330,-0.00000452,0.0000
 4050,0.00002559,-0.00001489,-0.00001406,-0.00002487,0.00000767,-0.0000
 0278,-0.00000593,0.00006724,0.00026670,0.00001902,0.00003241,-0.000049
 47,0.00001160,-0.00000571,-0.00000624,0.00086404,0.00003449,-0.0010114
 3,-0.00006388,-0.00038442,0.00003961,-0.00003623,0.00001599,0.00004693
 ,-0.00411558,-0.00327030,0.00172703,-0.00008717,-0.00021275,0.00092103
 ,0.00272548,-0.01357167,-0.02112132,-0.00216913,0.00145136,0.00089528,
 0.00658445,-0.20282406,-0.14567400,-0.00155576,0.00792670,0.00711897,0
 .00032777,-0.00008644,-0.00000565,0.00143490,0.00106665,0.00049912,-0.
 00010686,0.00026615,0.00033062,-0.00467921,0.20952586,-0.00000420,0.00
 000276,0.00000273,0.00000255,-0.00000562,-0.00000382,0.00000145,-0.000
 00346,-0.00000433,-0.00000273,0.00000015,0.00000078,-0.00000028,0.0000
 0008,0.00000100,-0.00000367,0.00000694,0.00000940,-0.00000270,0.000001
 52,-0.00000078,0.00000008,-0.00000022,0.00000107,0.00000123,0.00000260
 ,0.00001281,0.00001073,-0.00000402,0.00000198,0.00003842,-0.00000179,-
 0.00001827,-0.00000142,0.00000514,-0.00000159,-0.00000335,-0.00000031,
 -0.00000006,-0.00000297,0.00000094,0.00000222,-0.00000854,-0.00001330,
 -0.00001630,-0.00000257,0.00000143,-0.00000164,-0.00000212,-0.00000001
 ,-0.00000025,0.00000054,-0.00000066,0.00000079,0.00000417,-0.00005834,
 -0.00003735,-0.00000172,-0.00000014,-0.00000159,-0.00000117,0.00000338
 ,0.00000028,-0.00000136,-0.00000145,0.00000074,-0.00000049,-0.00000023
 ,0.00000120,0.00000193,0.00000962,-0.00003184,0.00001219,0.00000109,0.
 00001729,0.00001943,-0.00000204,0.00001792,-0.00000531,0.00000402,-0.0
 0000178,-0.00001192,0.00001810,0.00000724,-0.00001422,-0.00002378,-0.0
 0000856,0.00000126,0.00000085,-0.00000350,0.00001196,0.00032484,0.0002
 1902,-0.00003598,0.00002071,0.00000030,-0.00000662,-0.00002985,-0.0000
 0991,0.00258975,0.00107283,0.00180258,-0.00008200,0.00081938,-0.000170
 62,0.00070483,0.00683862,0.00772792,0.00439954,0.00180686,-0.00281695,
 0.01608876,-0.14564736,-0.19684885,0.00013758,-0.02096270,-0.01263609,
 -0.00039624,-0.00002073,-0.00011354,-0.00163477,0.00013218,0.00008391,
 0.00006005,-0.00100777,-0.00071985,-0.02006091,0.15622837,0.20269279,-
 0.00000353,0.00000171,0.00000170,0.00000138,-0.00000523,-0.00000352,0.
 00000196,-0.00000056,-0.00000467,-0.00000303,-0.00000008,0.00000097,-0
 .00000032,0.00000003,0.00000100,-0.00000972,0.00000669,0.00000048,-0.0
 0000227,0.00000163,0.00000016,0.00000013,-0.00000008,0.00000086,-0.000
 00462,0.00000280,0.00000459,0.00000774,-0.00000308,0.00000040,0.000030
 66,-0.00001702,-0.00001726,-0.00000048,0.00000168,0.00000314,-0.000003
 18,0.00000049,-0.00000119,-0.00000013,0.00000252,0.00000170,-0.0000058
 6,-0.00000777,-0.00002665,-0.00000194,-0.00000040,-0.00000276,-0.00000
 183,0.00000025,-0.00000030,0.00000090,-0.00000037,-0.00000025,-0.00008
 497,-0.00021231,-0.00005058,-0.00000200,0.00000073,-0.00000092,-0.0000
 0045,0.00000319,-0.00000003,-0.00000103,-0.00000157,0.00000064,-0.0000
 0037,-0.00000036,0.00000131,-0.00000963,0.00001967,-0.00001239,0.00000
 501,-0.00000612,0.00001637,-0.00000009,-0.00000847,-0.00000866,-0.0000
 1145,0.00000298,-0.00000324,-0.00002803,0.00000672,0.00003424,-0.00001
 413,-0.00000638,-0.00000942,0.00001395,-0.00000525,0.00000020,-0.00082
 116,0.00027000,-0.00034879,-0.00000349,0.00006670,0.00008216,0.0000240
 1,0.00001642,-0.00002736,-0.00075739,0.00053697,-0.00013421,0.00600486
 ,-0.00105681,0.00234473,0.00539327,-0.00160802,0.00427284,0.00427826,0
 .00297257,0.00070468,0.00010221,-0.01119569,0.00079161,-0.07685284,-0.
 09716928,0.02604570,0.00017030,0.00012986,0.00007522,0.00000001,-0.000
 53133,0.00009974,-0.00325046,0.00102021,-0.00165324,-0.00321101,0.0013
 5643,-0.00180037,0.06904974,-0.00000810,-0.00000032,0.00000467,0.00000
 193,-0.00000442,-0.00000505,0.00000381,-0.00000256,-0.00000820,-0.0000
 0347,-0.00000036,0.00000108,-0.00000020,0.00000005,0.00000144,-0.00000
 622,0.00000619,0.00000572,-0.00000294,0.00000208,0.00000057,0.00000046
 ,0.00000030,0.00000071,-0.00000641,0.00001109,0.00000438,0.00000830,-0
 .00000603,0.00000165,0.00003503,-0.00001477,-0.00003199,-0.00000023,0.
 00000006,0.00000467,-0.00000401,-0.00000134,-0.00000065,-0.00000309,0.
 00000132,0.00000318,-0.00002303,-0.00001165,-0.00000994,0.00000102,0.0
 0000137,0.00000064,-0.00000310,-0.00000001,-0.00000054,0.00000198,-0.0
 0000068,0.00000060,-0.00006047,-0.00001238,-0.00002363,-0.00000230,0.0
 0000051,-0.00000212,0.00000002,0.00000298,-0.00000035,-0.00000134,-0.0
 0000225,0.00000081,-0.00000017,-0.00000041,0.00000131,-0.00001735,0.00
 000540,-0.00001231,0.00001454,-0.00000165,0.00002059,0.00000980,-0.000
 00592,-0.00001016,-0.00001432,0.00000274,-0.00000303,0.00001271,0.0000
 2868,0.00004829,0.00000908,-0.00000247,-0.00000138,-0.00000750,0.00000
 654,-0.00000294,0.00033296,0.00006504,0.00013951,-0.00000418,-0.000054
 67,-0.00003879,-0.00003929,-0.00003810,0.00004557,0.00050047,0.0003058
 9,-0.00026876,-0.00063703,-0.00072018,-0.00428246,-0.00173296,0.002008
 24,0.00040821,-0.00812378,-0.01374372,0.00751805,-0.00054453,-0.001006
 76,-0.00239346,-0.09699535,-0.29943743,0.05109022,-0.00040746,-0.00079
 413,0.00033388,-0.00006587,-0.00018595,-0.00011982,0.00118006,0.000803
 76,0.00073742,0.00118448,0.00030541,0.00048147,0.10541617,0.31249101,0
 .00000144,-0.00000010,-0.00000055,-0.00000095,0.00000035,0.00000073,-0
 .00000218,-0.00000100,0.00000048,0.00000029,0.00000011,0.00000002,-0.0
 0000015,-0.00000002,0.00000005,-0.00000181,0.00000049,-0.00000039,0.00
 000066,-0.00000034,0.00000007,-0.00000033,0.00000028,0.00000038,-0.000
 00048,-0.00000157,0.00000318,0.00000077,-0.00000177,-0.00000163,-0.000
 00726,-0.00000445,-0.00000124,0.00000110,0.00000130,-0.00000078,-0.000
 00077,0.00000100,0.00000062,-0.00000074,-0.00000016,0.00000041,-0.0000
 0449,0.00000023,0.00000321,-0.00000094,-0.00000027,0.00000224,0.000000
 33,0.00000032,0.00000055,0.00000006,-0.00000011,0.00000021,0.00000423,
 -0.00003799,0.00001014,0.00000048,0.00000015,0.00000047,-0.00000009,0.
 00000006,-0.00000006,0.00000018,0.00000035,-0.00000009,-0.00000020,-0.
 00000010,0.00000011,0.00001649,-0.00000846,-0.00001085,-0.00000500,-0.
 00000328,0.00000192,-0.00000426,0.00001032,0.00001096,0.00000266,0.000
 00337,0.00000745,0.00000707,0.00000033,-0.00001271,-0.00000182,-0.0000
 0732,0.00000322,-0.00000012,0.00000399,-0.00000033,-0.00040721,0.00012
 929,0.00005654,0.00000285,0.00009996,0.00004400,-0.00001346,-0.0000535
 9,0.00002178,-0.00005359,-0.00025931,-0.00101166,0.00249886,-0.0034014
 3,-0.00171297,0.00400850,-0.00057091,-0.00356155,-0.00772136,-0.020481
 20,0.00791423,0.00933302,0.02572194,-0.00057419,0.02597227,0.05104490,
 -0.06633706,-0.00030887,-0.00097601,0.00025769,0.00050292,0.00120582,-
 0.00014964,-0.00148711,0.00116574,0.00048028,-0.00195238,0.00005739,0.
 00084386,-0.03037833,-0.05363844,0.06371073,-0.11386241,-0.01614601,-0
 .15426718,-0.00991389,0.00354051,-0.01336538,-0.01903360,-0.00663627,-
 0.02313794,0.00082638,-0.00059286,0.00084194,0.00153101,0.00043544,0.0
 0193331,-0.00003655,-0.00041447,-0.00124267,0.00120779,0.00071182,0.00
 052168,-0.00081081,-0.00212695,0.00202069,0.00021398,-0.00030379,-0.00
 216649,-0.00051002,0.00117137,0.00066359,-0.00046130,0.00019898,-0.000
 34049,-0.00097792,0.00094355,-0.00058943,-0.00013994,-0.00004315,0.000
 03162,0.00012534,-0.00000235,0.00003874,0.00025828,-0.00031454,-0.0002
 4948,0.00004635,0.00001182,0.00028986,0.00074233,-0.00076574,0.0021192
 6,0.00099527,-0.00026355,-0.00000884,0.00039603,-0.00006812,0.00013536
 ,0.00021008,0.00021501,0.00005526,0.00008195,-0.00003707,0.00011046,-0
 .00000915,-0.00003075,-0.00003153,-0.00002524,-0.00006058,0.00012757,0
 .00032225,-0.00030823,0.00012870,0.00017457,0.00013793,0.00008282,0.00
 008110,0.00018680,0.00007948,-0.00001669,0.00001179,-0.00003624,-0.000
 08091,-0.00007674,-0.00003090,-0.00000507,-0.00001487,0.00003030,0.000
 07062,-0.00003651,0.00002154,-0.00013450,-0.00005045,-0.00011574,0.000
 05514,-0.00000415,-0.00000362,0.00000933,0.00001174,0.00002754,0.00002
 741,-0.00002096,0.00002887,0.00001000,0.00001511,0.00000484,0.00001551
 ,0.00001234,-0.00001441,0.00000056,-0.00000654,-0.00000107,-0.00000289
 ,-0.00000099,0.00000264,0.00000408,0.00001064,-0.00000166,-0.00000099,
 -0.00000247,0.00000250,0.00000002,-0.00000179,0.00000149,0.00000170,0.
 00000253,-0.00000242,0.00000105,0.00000424,0.00000119,0.00000102,0.000
 00188,-0.00000029,0.13861274,-0.02428201,-0.05374150,-0.02202644,0.019
 09165,-0.00278614,0.03312972,-0.01398591,-0.00436058,-0.02594471,-0.00
 050797,0.00137075,-0.00012321,0.00312434,-0.00503292,0.00147549,-0.000
 18519,-0.00008153,0.00076693,0.00078409,0.00082242,-0.00025441,-0.0054
 6001,-0.00368971,0.00022400,0.00025558,0.00014521,0.00000794,0.0006660
 5,0.00004664,-0.00015964,0.00004293,-0.00021875,0.00012790,-0.00034258
 ,0.00019827,-0.00007481,-0.00015059,-0.00000798,-0.00004676,0.00000878
 ,0.00001147,0.00001650,0.00000689,-0.00009348,-0.00010207,0.00001427,-
 0.00006632,-0.00000583,0.00003950,0.00038484,0.00013890,0.00007853,-0.
 00003101,0.00003066,-0.00004790,0.00009819,-0.00003995,0.00014051,-0.0
 0013046,-0.00018609,0.00000332,-0.00012647,-0.00012708,-0.00002204,-0.
 00003859,0.00000552,-0.00001238,0.00006835,-0.00016733,0.00005677,0.00
 009245,0.00000498,-0.00002011,-0.00002669,0.00005975,0.00003328,0.0000
 3508,0.00001801,0.00000442,-0.00003642,0.00003616,-0.00003889,-0.00001
 054,0.00000556,0.00000702,0.00000304,-0.00000438,-0.00001078,-0.000002
 72,-0.00000210,0.00002145,0.00001696,0.00000642,-0.00000949,0.00000034
 ,0.00000043,-0.00000193,-0.00000193,-0.00000131,-0.00000059,-0.0000022
 6,-0.00000109,-0.00000317,-0.00000139,-0.00000315,-0.00000502,0.000000
 48,0.00000066,-0.00000088,0.00000188,0.00000066,-0.00000062,0.00000178
 ,-0.00000029,0.00000003,-0.00000115,0.00000006,0.00000029,0.00000038,0
 .00000011,0.00000218,-0.00000058,0.00000170,-0.00000046,-0.00000035,0.
 00000056,0.00000046,-0.00000034,-0.00000010,-0.00000023,-0.00000051,0.
 00000016,0.02070642,0.06719179,-0.19912883,-0.01292819,-0.33425991,0.0
 0187186,-0.00363104,-0.00851976,0.00710706,0.00081047,0.00086640,0.000
 56003,-0.00023223,0.00096935,-0.00116456,0.00329100,0.00031827,0.00035
 283,-0.00080086,0.00097335,0.00001499,0.00011520,0.00079748,-0.0000735
 7,-0.00103080,0.00093976,0.00084367,0.00055482,-0.00008283,-0.00052490
 ,-0.00020247,0.00009660,-0.00002242,-0.00012940,0.00007243,0.00354605,
 0.00023189,-0.00050289,-0.00016611,0.00008076,-0.00002288,-0.00006837,
 -0.00000914,-0.00000532,-0.00016358,0.00023334,0.00002937,-0.00000861,
 0.00003870,-0.00004526,0.00032324,0.00036833,-0.00176410,0.00000531,0.
 00024322,0.00002811,-0.00002681,-0.00001647,-0.00009747,0.00015664,-0.
 00017692,-0.00007324,0.00002641,-0.00005991,0.00000827,0.00000138,0.00
 002795,0.00000040,0.00003136,-0.00001837,0.00001616,0.00013778,0.00000
 017,-0.00030972,0.00000500,0.00003620,-0.00003475,-0.00004311,-0.00006
 891,0.00002862,-0.00000698,0.00000942,0.00003226,0.00011392,0.00003598
 ,0.00005011,0.00000302,-0.00000947,0.00001624,-0.00002185,-0.00000374,
 -0.00000892,0.00004736,0.00003512,0.00003412,-0.00002116,0.00000292,0.
 00000137,-0.00000336,-0.00000374,-0.00000732,-0.00000188,0.00000579,-0
 .00000581,-0.00000231,-0.00000428,-0.00000033,-0.00000354,-0.00000405,
 0.00000221,0.00000101,0.00000099,0.00000085,0.00000018,0.00000027,-0.0
 0000046,-0.00000110,-0.00000320,-0.00000018,0.00000009,0.00000056,-0.0
 0000088,0.00000038,0.00000052,0.00000027,-0.00000055,-0.00000070,0.000
 00074,-0.00000017,-0.00000113,-0.00000034,-0.00000031,-0.00000059,0.00
 000017,0.18630452,0.01321202,0.34045948\\0.00002670,0.00001478,0.00001
 425,-0.00001549,0.00001266,-0.00001184,-0.00003262,-0.00003469,0.00000
 372,0.00000266,-0.00000557,-0.00000052,-0.00000040,-0.00000522,0.00000
 168,0.00003106,-0.00001040,0.00000751,0.00000623,0.00000563,0.00000051
 ,-0.00000018,0.00000703,0.00000416,0.00001446,0.00002931,-0.00002430,0
 .00002262,-0.00001366,-0.00003451,-0.00000253,-0.00003820,0.00001091,0
 .00000192,-0.00000147,0.00001617,0.00000006,-0.00000131,0.00000088,0.0
 0000301,-0.00000235,-0.00001036,-0.00002345,0.00001749,0.00003127,0.00
 000083,0.00000302,-0.00000037,0.00000097,0.00000135,-0.00000528,0.0000
 0711,-0.00000122,-0.00000465,-0.00001494,0.00001714,0.00000396,-0.0000
 0482,0.00001087,-0.00000796,0.00000174,-0.00000069,-0.00000702,-0.0000
 0039,-0.00000086,-0.00000471,-0.00000057,-0.00000294,-0.00000348,-0.00
 000996,-0.00000803,0.00001239,0.00000321,-0.00000108,-0.00000131,-0.00
 000344,-0.00000182,-0.00000140,0.00000058,0.00000183,0.00000252,-0.000
 00046,0.00000201,-0.00001013,0.00000832,0.00000999,-0.00000225,-0.0000
 0139,-0.00000382,0.00000240,-0.00000528,-0.00001013,-0.00000339,0.0000
 0043,0.00000081,0.00000003,0.00000005,0.00000248,0.00000064,0.00000288
 ,0.00000520,-0.00000229,-0.00000141,0.00000066,0.00000369,0.00000112,-
 0.00000051,0.00000166,-0.00000063,0.00000375,0.00000308,-0.00000041,-0
 .00000233,0.00000621,-0.00000091,0.00000064,0.00000443,0.00000105,0.00
 000111,0.00000197,-0.00000117,-0.00000142,0.00000287,0.00000048,0.0000
 0327,0.00000425,-0.00000122,-0.00000115,0.00000502,-0.00000085,0.00000
 131,0.00000549,-0.00001500,-0.00000345,-0.00001591\\\@


 SIC AS THE CAWSE OF EWERY THING IS, SIC WILBE THE EFFECT.
 -- PROVERBS AND REASONS OF THE YEAR 1585
           AS REPRINTED IN PAISLEY MAGAZINE 1828.
 Job cpu time:       0 days  9 hours 45 minutes 45.6 seconds.
 Elapsed time:       0 days  0 hours 29 minutes 54.1 seconds.
 File lengths (MBytes):  RWF=    944 Int=      0 D2E=      0 Chk=     28 Scr=      1
 Normal termination of Gaussian 16 at Fri Mar 12 23:42:07 2021.
