 Entering Gaussian System, Link 0=/opt/g16avx/g16
 Input=product_b.gjf
 Output=product_b.log
 Initial command:
 /opt/g16avx/l1.exe "/home/scratch/Gau-11336.inp" -scrdir="/home/scratch/"
 Entering Link 1 = /opt/g16avx/l1.exe PID=     11337.
  
 Copyright (c) 1988,1990,1992,1993,1995,1998,2003,2009,2016,
            Gaussian, Inc.  All Rights Reserved.
  
 This is part of the Gaussian(R) 16 program.  It is based on
 the Gaussian(R) 09 system (copyright 2009, Gaussian, Inc.),
 the Gaussian(R) 03 system (copyright 2003, Gaussian, Inc.),
 the Gaussian(R) 98 system (copyright 1998, Gaussian, Inc.),
 the Gaussian(R) 94 system (copyright 1995, Gaussian, Inc.),
 the Gaussian 92(TM) system (copyright 1992, Gaussian, Inc.),
 the Gaussian 90(TM) system (copyright 1990, Gaussian, Inc.),
 the Gaussian 88(TM) system (copyright 1988, Gaussian, Inc.),
 the Gaussian 86(TM) system (copyright 1986, Carnegie Mellon
 University), and the Gaussian 82(TM) system (copyright 1983,
 Carnegie Mellon University). Gaussian is a federally registered
 trademark of Gaussian, Inc.
  
 This software contains proprietary and confidential information,
 including trade secrets, belonging to Gaussian, Inc.
  
 This software is provided under written license and may be
 used, copied, transmitted, or stored only in accord with that
 written license.
  
 The following legend is applicable only to US Government
 contracts under FAR:
  
                    RESTRICTED RIGHTS LEGEND
  
 Use, reproduction and disclosure by the US Government is
 subject to restrictions as set forth in subparagraphs (a)
 and (c) of the Commercial Computer Software - Restricted
 Rights clause in FAR 52.227-19.
  
 Gaussian, Inc.
 340 Quinnipiac St., Bldg. 40, Wallingford CT 06492
  
  
 ---------------------------------------------------------------
 Warning -- This program may not be used in any manner that
 competes with the business of Gaussian, Inc. or will provide
 assistance to any competitor of Gaussian, Inc.  The licensee
 of this program is prohibited from giving any competitor of
 Gaussian, Inc. access to this program.  By using this program,
 the user acknowledges that Gaussian, Inc. is engaged in the
 business of creating and licensing software in the field of
 computational chemistry and represents and warrants to the
 licensee that it is not a competitor of Gaussian, Inc. and that
 it will not use this program in any manner prohibited above.
 ---------------------------------------------------------------
  

 Cite this work as:
 Gaussian 16, Revision A.03,
 M. J. Frisch, G. W. Trucks, H. B. Schlegel, G. E. Scuseria, 
 M. A. Robb, J. R. Cheeseman, G. Scalmani, V. Barone, 
 G. A. Petersson, H. Nakatsuji, X. Li, M. Caricato, A. V. Marenich, 
 J. Bloino, B. G. Janesko, R. Gomperts, B. Mennucci, H. P. Hratchian, 
 J. V. Ortiz, A. F. Izmaylov, J. L. Sonnenberg, D. Williams-Young, 
 F. Ding, F. Lipparini, F. Egidi, J. Goings, B. Peng, A. Petrone, 
 T. Henderson, D. Ranasinghe, V. G. Zakrzewski, J. Gao, N. Rega, 
 G. Zheng, W. Liang, M. Hada, M. Ehara, K. Toyota, R. Fukuda, 
 J. Hasegawa, M. Ishida, T. Nakajima, Y. Honda, O. Kitao, H. Nakai, 
 T. Vreven, K. Throssell, J. A. Montgomery, Jr., J. E. Peralta, 
 F. Ogliaro, M. J. Bearpark, J. J. Heyd, E. N. Brothers, K. N. Kudin, 
 V. N. Staroverov, T. A. Keith, R. Kobayashi, J. Normand, 
 K. Raghavachari, A. P. Rendell, J. C. Burant, S. S. Iyengar, 
 J. Tomasi, M. Cossi, J. M. Millam, M. Klene, C. Adamo, R. Cammi, 
 J. W. Ochterski, R. L. Martin, K. Morokuma, O. Farkas, 
 J. B. Foresman, and D. J. Fox, Gaussian, Inc., Wallingford CT, 2016.
 
 ******************************************
 Gaussian 16:  ES64L-G16RevA.03 25-Dec-2016
                12-Mar-2021 
 ******************************************
 %chk=pr_b.chk
 %nprocshared=20
 Will use up to   20 processors via shared memory.
 %mem=20Gb
 ----------------------------------------------------------------------
 #p opt PBE1PBE/DEF2SVP empiricaldispersion=gd3bj scrf=(SMD, solvent=Be
 nzene) freq=noraman pop=SaveNBOs
 ----------------------------------------------------------------------
 1/18=20,19=15,26=3,38=1/1,3;
 2/9=110,12=2,17=6,18=5,40=1/2;
 3/5=43,7=101,11=2,25=1,30=1,70=32201,71=1,72=12,74=-13,124=41/1,2,3;
 4//1;
 5/5=2,38=5,53=12/2;
 6/7=2,8=2,9=2,10=2,28=1,40=1,73=1/1,7;
 7//1,2,3,16;
 1/18=20,19=15,26=3/3(2);
 2/9=110/2;
 99//99;
 2/9=110/2;
 3/5=43,7=101,11=2,25=1,30=1,70=32205,71=1,72=12,74=-13,124=41/1,2,3;
 4/5=5,16=3,69=1/1;
 5/5=2,38=5,53=12/2;
 7//1,2,3,16;
 1/18=20,19=15,26=3/3(-5);
 2/9=110/2;
 6/7=2,8=2,9=2,10=2,19=2,28=1,40=1,73=1/1,7;
 99/9=1/99;
 Leave Link    1 at Fri Mar 12 18:16:07 2021, MaxMem=  2684354560 cpu:               2.0 elap:               0.1
 (Enter /opt/g16avx/l101.exe)
 ---------------
 Vatsadze, way 1
 ---------------
 Symbolic Z-matrix:
 Charge =  0 Multiplicity = 1
 N                     0.34818  -1.81571  -2.08448 
 C                    -0.00883  -0.90517  -1.07635 
 C                     0.5871   -3.15513  -1.73094 
 H                     0.49436   0.04653  -1.30464 
 H                    -1.08418  -0.69331  -1.21873 
 C                     0.21615  -1.27548   0.40253 
 H                     1.32866  -3.55095  -2.43849 
 H                    -0.33459  -3.73492  -1.91837 
 C                     1.05017  -3.38238  -0.27878 
 C                     1.72274  -1.27714   0.7585 
 C                    -0.05273  -2.77175   0.62304 
 C                     2.2729   -2.47002  -0.03759 
 H                     2.22211  -0.3373    0.50587 
 H                     1.5314   -0.74004   2.70377 
 N                     1.91941  -1.51451   2.1779 
 H                    -1.04017  -3.08443   0.28346 
 H                     2.68751  -2.12993  -0.98665 
 H                     3.06657  -2.96522   0.51838 
 N                     0.07871  -3.08602   2.02922 
 C                    -0.62917  -0.36264   1.28591 
 H                    -0.62211  -0.69881   2.32067 
 H                    -0.25843   0.66036   1.24063 
 H                    -1.66461  -0.36691   0.94949 
 C                     1.29902  -4.86586  -0.04697 
 H                     1.63132  -5.0643    0.96826 
 H                     0.38416  -5.43164  -0.21555 
 H                     2.06118  -5.22857  -0.73439 
 C                     1.36816  -2.77235   2.6262 
 H                     2.11351  -3.55484   2.41146 
 H                     1.24115  -2.72135   3.71121 
 C                    -1.01854  -3.6831    2.8041 
 H                    -0.96735  -3.32441   3.8423 
 H                    -1.97982  -3.32441   2.40862 
 C                    -1.01183  -5.22308   2.79937 
 C                    -0.3135   -5.94558   3.78154 
 C                    -1.70387  -5.94558   1.81275 
 C                    -0.30725  -7.33941   3.77752 
 C                    -1.69799  -7.33941   1.80821 
 C                    -0.99956  -8.04305   2.7907 
 H                     0.22826  -5.40818   4.55365 
 H                    -2.25032  -5.40818   1.04395 
 H                     0.2397   -7.87669   4.54706 
 H                    -2.24027  -7.87669   1.03537 
 H                    -0.99483  -9.12903   2.78736 
 C                     0.7568   -2.21259  -3.47211 
 O                     0.66299  -1.17887  -4.07156 
 O                     1.735    -2.73113  -4.1678 
 C                     2.5875   -1.89966  -5.0311 
 C                     1.73747  -1.27412  -6.12593 
 H                     1.1895   -2.05225  -6.67757 
 H                     1.0199   -0.5537   -5.7137 
 H                     2.39254  -0.74795  -6.83489 
 C                     3.30823  -0.8624   -4.18431 
 H                     2.60662  -0.13533  -3.75647 
 H                     3.86281  -1.35047  -3.36925 
 H                     4.02951  -0.32171  -4.81361 
 C                     3.56418  -2.90991  -5.60696 
 H                     4.13967  -3.39293  -4.80416 
 H                     3.02885  -3.68608  -6.1726 
 H                     4.26576  -2.40436  -6.28491 
 
 ITRead=  0  0  0  0  0  0  0  0  0  0  0  0  0  0  0  0  0  0  0  0
 ITRead=  0  0  0  0  0  0  0  0  0  0  0  0  0  0  0  0  0  0  0  0
 ITRead=  0  0  0  0  0  0  0  0  0  0  0  0  0  0  0  0  0  0  0  0
 MicOpt= -1 -1 -1 -1 -1 -1 -1 -1 -1 -1 -1 -1 -1 -1 -1 -1 -1 -1 -1 -1
 MicOpt= -1 -1 -1 -1 -1 -1 -1 -1 -1 -1 -1 -1 -1 -1 -1 -1 -1 -1 -1 -1
 MicOpt= -1 -1 -1 -1 -1 -1 -1 -1 -1 -1 -1 -1 -1 -1 -1 -1 -1 -1 -1 -1
 NAtoms=     60 NQM=       60 NQMF=       0 NMMI=      0 NMMIF=      0
                NMic=       0 NMicF=      0.
                    Isotopes and Nuclear Properties:
 (Nuclear quadrupole moments (NQMom) in fm**2, nuclear magnetic moments (NMagM)
  in nuclear magnetons)

  Atom         1           2           3           4           5           6           7           8           9          10
 IAtWgt=          14          12          12           1           1          12           1           1          12          12
 AtmWgt=  14.0030740  12.0000000  12.0000000   1.0078250   1.0078250  12.0000000   1.0078250   1.0078250  12.0000000  12.0000000
 NucSpn=           2           0           0           1           1           0           1           1           0           0
 AtZEff=  -0.0000000  -0.0000000  -0.0000000  -0.0000000  -0.0000000  -0.0000000  -0.0000000  -0.0000000  -0.0000000  -0.0000000
 NQMom=    2.0440000   0.0000000   0.0000000   0.0000000   0.0000000   0.0000000   0.0000000   0.0000000   0.0000000   0.0000000
 NMagM=    0.4037610   0.0000000   0.0000000   2.7928460   2.7928460   0.0000000   2.7928460   2.7928460   0.0000000   0.0000000
 AtZNuc=   7.0000000   6.0000000   6.0000000   1.0000000   1.0000000   6.0000000   1.0000000   1.0000000   6.0000000   6.0000000

  Atom        11          12          13          14          15          16          17          18          19          20
 IAtWgt=          12          12           1           1          14           1           1           1          14          12
 AtmWgt=  12.0000000  12.0000000   1.0078250   1.0078250  14.0030740   1.0078250   1.0078250   1.0078250  14.0030740  12.0000000
 NucSpn=           0           0           1           1           2           1           1           1           2           0
 AtZEff=  -0.0000000  -0.0000000  -0.0000000  -0.0000000  -0.0000000  -0.0000000  -0.0000000  -0.0000000  -0.0000000  -0.0000000
 NQMom=    0.0000000   0.0000000   0.0000000   0.0000000   2.0440000   0.0000000   0.0000000   0.0000000   2.0440000   0.0000000
 NMagM=    0.0000000   0.0000000   2.7928460   2.7928460   0.4037610   2.7928460   2.7928460   2.7928460   0.4037610   0.0000000
 AtZNuc=   6.0000000   6.0000000   1.0000000   1.0000000   7.0000000   1.0000000   1.0000000   1.0000000   7.0000000   6.0000000

  Atom        21          22          23          24          25          26          27          28          29          30
 IAtWgt=           1           1           1          12           1           1           1          12           1           1
 AtmWgt=   1.0078250   1.0078250   1.0078250  12.0000000   1.0078250   1.0078250   1.0078250  12.0000000   1.0078250   1.0078250
 NucSpn=           1           1           1           0           1           1           1           0           1           1
 AtZEff=  -0.0000000  -0.0000000  -0.0000000  -0.0000000  -0.0000000  -0.0000000  -0.0000000  -0.0000000  -0.0000000  -0.0000000
 NQMom=    0.0000000   0.0000000   0.0000000   0.0000000   0.0000000   0.0000000   0.0000000   0.0000000   0.0000000   0.0000000
 NMagM=    2.7928460   2.7928460   2.7928460   0.0000000   2.7928460   2.7928460   2.7928460   0.0000000   2.7928460   2.7928460
 AtZNuc=   1.0000000   1.0000000   1.0000000   6.0000000   1.0000000   1.0000000   1.0000000   6.0000000   1.0000000   1.0000000

  Atom        31          32          33          34          35          36          37          38          39          40
 IAtWgt=          12           1           1          12          12          12          12          12          12           1
 AtmWgt=  12.0000000   1.0078250   1.0078250  12.0000000  12.0000000  12.0000000  12.0000000  12.0000000  12.0000000   1.0078250
 NucSpn=           0           1           1           0           0           0           0           0           0           1
 AtZEff=  -0.0000000  -0.0000000  -0.0000000  -0.0000000  -0.0000000  -0.0000000  -0.0000000  -0.0000000  -0.0000000  -0.0000000
 NQMom=    0.0000000   0.0000000   0.0000000   0.0000000   0.0000000   0.0000000   0.0000000   0.0000000   0.0000000   0.0000000
 NMagM=    0.0000000   2.7928460   2.7928460   0.0000000   0.0000000   0.0000000   0.0000000   0.0000000   0.0000000   2.7928460
 AtZNuc=   6.0000000   1.0000000   1.0000000   6.0000000   6.0000000   6.0000000   6.0000000   6.0000000   6.0000000   1.0000000

  Atom        41          42          43          44          45          46          47          48          49          50
 IAtWgt=           1           1           1           1          12          16          16          12          12           1
 AtmWgt=   1.0078250   1.0078250   1.0078250   1.0078250  12.0000000  15.9949146  15.9949146  12.0000000  12.0000000   1.0078250
 NucSpn=           1           1           1           1           0           0           0           0           0           1
 AtZEff=  -0.0000000  -0.0000000  -0.0000000  -0.0000000  -0.0000000  -0.0000000  -0.0000000  -0.0000000  -0.0000000  -0.0000000
 NQMom=    0.0000000   0.0000000   0.0000000   0.0000000   0.0000000   0.0000000   0.0000000   0.0000000   0.0000000   0.0000000
 NMagM=    2.7928460   2.7928460   2.7928460   2.7928460   0.0000000   0.0000000   0.0000000   0.0000000   0.0000000   2.7928460
 AtZNuc=   1.0000000   1.0000000   1.0000000   1.0000000   6.0000000   8.0000000   8.0000000   6.0000000   6.0000000   1.0000000

  Atom        51          52          53          54          55          56          57          58          59          60
 IAtWgt=           1           1          12           1           1           1          12           1           1           1
 AtmWgt=   1.0078250   1.0078250  12.0000000   1.0078250   1.0078250   1.0078250  12.0000000   1.0078250   1.0078250   1.0078250
 NucSpn=           1           1           0           1           1           1           0           1           1           1
 AtZEff=  -0.0000000  -0.0000000  -0.0000000  -0.0000000  -0.0000000  -0.0000000  -0.0000000  -0.0000000  -0.0000000  -0.0000000
 NQMom=    0.0000000   0.0000000   0.0000000   0.0000000   0.0000000   0.0000000   0.0000000   0.0000000   0.0000000   0.0000000
 NMagM=    2.7928460   2.7928460   0.0000000   2.7928460   2.7928460   2.7928460   0.0000000   2.7928460   2.7928460   2.7928460
 AtZNuc=   1.0000000   1.0000000   6.0000000   1.0000000   1.0000000   1.0000000   6.0000000   1.0000000   1.0000000   1.0000000
 Leave Link  101 at Fri Mar 12 18:16:08 2021, MaxMem=  2684354560 cpu:               7.1 elap:               0.4
 (Enter /opt/g16avx/l103.exe)

 GradGradGradGradGradGradGradGradGradGradGradGradGradGradGradGradGradGrad
 Berny optimization.
 Initialization pass.
                           ----------------------------
                           !    Initial Parameters    !
                           ! (Angstroms and Degrees)  !
 --------------------------                            --------------------------
 ! Name  Definition              Value          Derivative Info.                !
 --------------------------------------------------------------------------------
 ! R1    R(1,2)                  1.4046         estimate D2E/DX2                !
 ! R2    R(1,3)                  1.4057         estimate D2E/DX2                !
 ! R3    R(1,45)                 1.5            estimate D2E/DX2                !
 ! R4    R(2,4)                  1.1005         estimate D2E/DX2                !
 ! R5    R(2,5)                  1.1052         estimate D2E/DX2                !
 ! R6    R(2,6)                  1.541          estimate D2E/DX2                !
 ! R7    R(3,7)                  1.0987         estimate D2E/DX2                !
 ! R8    R(3,8)                  1.1049         estimate D2E/DX2                !
 ! R9    R(3,9)                  1.541          estimate D2E/DX2                !
 ! R10   R(6,10)                 1.5481         estimate D2E/DX2                !
 ! R11   R(6,11)                 1.5361         estimate D2E/DX2                !
 ! R12   R(6,20)                 1.5258         estimate D2E/DX2                !
 ! R13   R(9,11)                 1.55           estimate D2E/DX2                !
 ! R14   R(9,12)                 1.5446         estimate D2E/DX2                !
 ! R15   R(9,24)                 1.522          estimate D2E/DX2                !
 ! R16   R(10,12)                1.536          estimate D2E/DX2                !
 ! R17   R(10,13)                1.0938         estimate D2E/DX2                !
 ! R18   R(10,15)                1.4525         estimate D2E/DX2                !
 ! R19   R(11,16)                1.09           estimate D2E/DX2                !
 ! R20   R(11,19)                1.4468         estimate D2E/DX2                !
 ! R21   R(12,17)                1.0901         estimate D2E/DX2                !
 ! R22   R(12,18)                1.0882         estimate D2E/DX2                !
 ! R23   R(14,15)                1.0134         estimate D2E/DX2                !
 ! R24   R(15,28)                1.4446         estimate D2E/DX2                !
 ! R25   R(19,28)                1.4551         estimate D2E/DX2                !
 ! R26   R(19,31)                1.47           estimate D2E/DX2                !
 ! R27   R(20,21)                1.088          estimate D2E/DX2                !
 ! R28   R(20,22)                1.0891         estimate D2E/DX2                !
 ! R29   R(20,23)                1.0887         estimate D2E/DX2                !
 ! R30   R(24,25)                1.0865         estimate D2E/DX2                !
 ! R31   R(24,26)                1.0888         estimate D2E/DX2                !
 ! R32   R(24,27)                1.0886         estimate D2E/DX2                !
 ! R33   R(28,29)                1.1018         estimate D2E/DX2                !
 ! R34   R(28,30)                1.0936         estimate D2E/DX2                !
 ! R35   R(31,32)                1.0996         estimate D2E/DX2                !
 ! R36   R(31,33)                1.0996         estimate D2E/DX2                !
 ! R37   R(31,34)                1.54           estimate D2E/DX2                !
 ! R38   R(34,35)                1.4051         estimate D2E/DX2                !
 ! R39   R(34,36)                1.4051         estimate D2E/DX2                !
 ! R40   R(35,37)                1.3939         estimate D2E/DX2                !
 ! R41   R(35,40)                1.0856         estimate D2E/DX2                !
 ! R42   R(36,38)                1.3939         estimate D2E/DX2                !
 ! R43   R(36,41)                1.0856         estimate D2E/DX2                !
 ! R44   R(37,39)                1.3958         estimate D2E/DX2                !
 ! R45   R(37,42)                1.0863         estimate D2E/DX2                !
 ! R46   R(38,39)                1.3958         estimate D2E/DX2                !
 ! R47   R(38,43)                1.0863         estimate D2E/DX2                !
 ! R48   R(39,44)                1.086          estimate D2E/DX2                !
 ! R49   R(45,46)                1.1986         estimate D2E/DX2                !
 ! R50   R(45,47)                1.3076         estimate D2E/DX2                !
 ! R51   R(47,48)                1.4708         estimate D2E/DX2                !
 ! R52   R(48,49)                1.5207         estimate D2E/DX2                !
 ! R53   R(48,53)                1.5207         estimate D2E/DX2                !
 ! R54   R(48,57)                1.5186         estimate D2E/DX2                !
 ! R55   R(49,50)                1.1            estimate D2E/DX2                !
 ! R56   R(49,51)                1.0972         estimate D2E/DX2                !
 ! R57   R(49,52)                1.0994         estimate D2E/DX2                !
 ! R58   R(53,54)                1.0972         estimate D2E/DX2                !
 ! R59   R(53,55)                1.1            estimate D2E/DX2                !
 ! R60   R(53,56)                1.0994         estimate D2E/DX2                !
 ! R61   R(57,58)                1.0995         estimate D2E/DX2                !
 ! R62   R(57,59)                1.0995         estimate D2E/DX2                !
 ! R63   R(57,60)                1.0988         estimate D2E/DX2                !
 ! A1    A(2,1,3)              118.7094         estimate D2E/DX2                !
 ! A2    A(2,1,45)             154.7874         estimate D2E/DX2                !
 ! A3    A(3,1,45)              86.2303         estimate D2E/DX2                !
 ! A4    A(1,2,4)              107.1885         estimate D2E/DX2                !
 ! A5    A(1,2,5)              106.2069         estimate D2E/DX2                !
 ! A6    A(1,2,6)              119.7292         estimate D2E/DX2                !
 ! A7    A(4,2,5)              104.6184         estimate D2E/DX2                !
 ! A8    A(4,2,6)              109.885          estimate D2E/DX2                !
 ! A9    A(5,2,6)              108.1637         estimate D2E/DX2                !
 ! A10   A(1,3,7)              107.2178         estimate D2E/DX2                !
 ! A11   A(1,3,8)              108.3936         estimate D2E/DX2                !
 ! A12   A(1,3,9)              115.3765         estimate D2E/DX2                !
 ! A13   A(7,3,8)              105.3508         estimate D2E/DX2                !
 ! A14   A(7,3,9)              110.5421         estimate D2E/DX2                !
 ! A15   A(8,3,9)              109.4596         estimate D2E/DX2                !
 ! A16   A(2,6,10)             111.2846         estimate D2E/DX2                !
 ! A17   A(2,6,11)             110.2592         estimate D2E/DX2                !
 ! A18   A(2,6,20)             109.3267         estimate D2E/DX2                !
 ! A19   A(10,6,11)             97.8331         estimate D2E/DX2                !
 ! A20   A(10,6,20)            113.9959         estimate D2E/DX2                !
 ! A21   A(11,6,20)            113.7438         estimate D2E/DX2                !
 ! A22   A(3,9,11)             106.0426         estimate D2E/DX2                !
 ! A23   A(3,9,12)             107.3331         estimate D2E/DX2                !
 ! A24   A(3,9,24)             109.657          estimate D2E/DX2                !
 ! A25   A(11,9,12)            103.8706         estimate D2E/DX2                !
 ! A26   A(11,9,24)            114.3124         estimate D2E/DX2                !
 ! A27   A(12,9,24)            114.9947         estimate D2E/DX2                !
 ! A28   A(6,10,12)            103.3108         estimate D2E/DX2                !
 ! A29   A(6,10,13)            112.9709         estimate D2E/DX2                !
 ! A30   A(6,10,15)            110.8947         estimate D2E/DX2                !
 ! A31   A(12,10,13)           112.585          estimate D2E/DX2                !
 ! A32   A(12,10,15)           109.3328         estimate D2E/DX2                !
 ! A33   A(13,10,15)           107.7156         estimate D2E/DX2                !
 ! A34   A(6,11,9)             100.1171         estimate D2E/DX2                !
 ! A35   A(6,11,16)            113.1567         estimate D2E/DX2                !
 ! A36   A(6,11,19)            109.5836         estimate D2E/DX2                !
 ! A37   A(9,11,16)            110.5069         estimate D2E/DX2                !
 ! A38   A(9,11,19)            114.5354         estimate D2E/DX2                !
 ! A39   A(16,11,19)           108.8308         estimate D2E/DX2                !
 ! A40   A(9,12,10)            104.8399         estimate D2E/DX2                !
 ! A41   A(9,12,17)            110.4524         estimate D2E/DX2                !
 ! A42   A(9,12,18)            112.8514         estimate D2E/DX2                !
 ! A43   A(10,12,17)           110.1921         estimate D2E/DX2                !
 ! A44   A(10,12,18)           110.4773         estimate D2E/DX2                !
 ! A45   A(17,12,18)           108.0218         estimate D2E/DX2                !
 ! A46   A(10,15,14)           109.2913         estimate D2E/DX2                !
 ! A47   A(10,15,28)           113.1959         estimate D2E/DX2                !
 ! A48   A(14,15,28)           110.9954         estimate D2E/DX2                !
 ! A49   A(11,19,28)           115.62           estimate D2E/DX2                !
 ! A50   A(11,19,31)           122.19           estimate D2E/DX2                !
 ! A51   A(28,19,31)           122.1901         estimate D2E/DX2                !
 ! A52   A(6,20,21)            111.2335         estimate D2E/DX2                !
 ! A53   A(6,20,22)            110.445          estimate D2E/DX2                !
 ! A54   A(6,20,23)            110.2214         estimate D2E/DX2                !
 ! A55   A(21,20,22)           109.1211         estimate D2E/DX2                !
 ! A56   A(21,20,23)           107.3871         estimate D2E/DX2                !
 ! A57   A(22,20,23)           108.3363         estimate D2E/DX2                !
 ! A58   A(9,24,25)            111.7374         estimate D2E/DX2                !
 ! A59   A(9,24,26)            110.2144         estimate D2E/DX2                !
 ! A60   A(9,24,27)            110.0642         estimate D2E/DX2                !
 ! A61   A(25,24,26)           107.8629         estimate D2E/DX2                !
 ! A62   A(25,24,27)           108.3651         estimate D2E/DX2                !
 ! A63   A(26,24,27)           108.5039         estimate D2E/DX2                !
 ! A64   A(15,28,19)           113.485          estimate D2E/DX2                !
 ! A65   A(15,28,29)           107.4422         estimate D2E/DX2                !
 ! A66   A(15,28,30)           108.1557         estimate D2E/DX2                !
 ! A67   A(19,28,29)           111.4942         estimate D2E/DX2                !
 ! A68   A(19,28,30)           108.3103         estimate D2E/DX2                !
 ! A69   A(29,28,30)           107.7609         estimate D2E/DX2                !
 ! A70   A(19,31,32)           109.2962         estimate D2E/DX2                !
 ! A71   A(19,31,33)           109.2962         estimate D2E/DX2                !
 ! A72   A(19,31,34)           113.6597         estimate D2E/DX2                !
 ! A73   A(32,31,33)           105.8945         estimate D2E/DX2                !
 ! A74   A(32,31,34)           109.2014         estimate D2E/DX2                !
 ! A75   A(33,31,34)           109.2015         estimate D2E/DX2                !
 ! A76   A(31,34,35)           120.9441         estimate D2E/DX2                !
 ! A77   A(31,34,36)           120.944          estimate D2E/DX2                !
 ! A78   A(35,34,36)           118.1119         estimate D2E/DX2                !
 ! A79   A(34,35,37)           120.9574         estimate D2E/DX2                !
 ! A80   A(34,35,40)           119.3831         estimate D2E/DX2                !
 ! A81   A(37,35,40)           119.6595         estimate D2E/DX2                !
 ! A82   A(34,36,38)           120.9574         estimate D2E/DX2                !
 ! A83   A(34,36,41)           119.3832         estimate D2E/DX2                !
 ! A84   A(38,36,41)           119.6595         estimate D2E/DX2                !
 ! A85   A(35,37,39)           120.2599         estimate D2E/DX2                !
 ! A86   A(35,37,42)           119.6574         estimate D2E/DX2                !
 ! A87   A(39,37,42)           120.0827         estimate D2E/DX2                !
 ! A88   A(36,38,39)           120.2599         estimate D2E/DX2                !
 ! A89   A(36,38,43)           119.6574         estimate D2E/DX2                !
 ! A90   A(39,38,43)           120.0827         estimate D2E/DX2                !
 ! A91   A(37,39,38)           119.4536         estimate D2E/DX2                !
 ! A92   A(37,39,44)           120.2732         estimate D2E/DX2                !
 ! A93   A(38,39,44)           120.2732         estimate D2E/DX2                !
 ! A94   A(1,45,46)            102.3064         estimate D2E/DX2                !
 ! A95   A(1,45,47)            143.2174         estimate D2E/DX2                !
 ! A96   A(46,45,47)            97.7283         estimate D2E/DX2                !
 ! A97   A(45,47,48)           121.4464         estimate D2E/DX2                !
 ! A98   A(47,48,49)           109.3373         estimate D2E/DX2                !
 ! A99   A(47,48,53)           109.479          estimate D2E/DX2                !
 ! A100  A(47,48,57)           102.6661         estimate D2E/DX2                !
 ! A101  A(49,48,53)           112.6595         estimate D2E/DX2                !
 ! A102  A(49,48,57)           111.1092         estimate D2E/DX2                !
 ! A103  A(53,48,57)           111.1073         estimate D2E/DX2                !
 ! A104  A(48,49,50)           110.3961         estimate D2E/DX2                !
 ! A105  A(48,49,51)           111.4184         estimate D2E/DX2                !
 ! A106  A(48,49,52)           109.1529         estimate D2E/DX2                !
 ! A107  A(50,49,51)           109.0916         estimate D2E/DX2                !
 ! A108  A(50,49,52)           108.1791         estimate D2E/DX2                !
 ! A109  A(51,49,52)           108.5259         estimate D2E/DX2                !
 ! A110  A(48,53,54)           111.4725         estimate D2E/DX2                !
 ! A111  A(48,53,55)           110.4201         estimate D2E/DX2                !
 ! A112  A(48,53,56)           109.1277         estimate D2E/DX2                !
 ! A113  A(54,53,55)           109.1149         estimate D2E/DX2                !
 ! A114  A(54,53,56)           108.471          estimate D2E/DX2                !
 ! A115  A(55,53,56)           108.154          estimate D2E/DX2                !
 ! A116  A(48,57,58)           110.6092         estimate D2E/DX2                !
 ! A117  A(48,57,59)           110.5823         estimate D2E/DX2                !
 ! A118  A(48,57,60)           109.7871         estimate D2E/DX2                !
 ! A119  A(58,57,59)           108.6829         estimate D2E/DX2                !
 ! A120  A(58,57,60)           108.5672         estimate D2E/DX2                !
 ! A121  A(59,57,60)           108.5561         estimate D2E/DX2                !
 ! D1    D(3,1,2,4)            141.5841         estimate D2E/DX2                !
 ! D2    D(3,1,2,5)           -107.007          estimate D2E/DX2                !
 ! D3    D(3,1,2,6)             15.6647         estimate D2E/DX2                !
 ! D4    D(45,1,2,4)           -29.2663         estimate D2E/DX2                !
 ! D5    D(45,1,2,5)            82.1426         estimate D2E/DX2                !
 ! D6    D(45,1,2,6)          -155.1857         estimate D2E/DX2                !
 ! D7    D(2,1,3,7)           -149.9418         estimate D2E/DX2                !
 ! D8    D(2,1,3,8)             96.7849         estimate D2E/DX2                !
 ! D9    D(2,1,3,9)            -26.3288         estimate D2E/DX2                !
 ! D10   D(45,1,3,7)            26.1658         estimate D2E/DX2                !
 ! D11   D(45,1,3,8)           -87.1075         estimate D2E/DX2                !
 ! D12   D(45,1,3,9)           149.7788         estimate D2E/DX2                !
 ! D13   D(2,1,45,46)           -7.2608         estimate D2E/DX2                !
 ! D14   D(2,1,45,47)          114.1827         estimate D2E/DX2                !
 ! D15   D(3,1,45,46)         -179.2265         estimate D2E/DX2                !
 ! D16   D(3,1,45,47)          -57.7829         estimate D2E/DX2                !
 ! D17   D(1,2,6,10)            71.0299         estimate D2E/DX2                !
 ! D18   D(1,2,6,11)           -36.4098         estimate D2E/DX2                !
 ! D19   D(1,2,6,20)          -162.162          estimate D2E/DX2                !
 ! D20   D(4,2,6,10)           -53.6114         estimate D2E/DX2                !
 ! D21   D(4,2,6,11)          -161.0512         estimate D2E/DX2                !
 ! D22   D(4,2,6,20)            73.1966         estimate D2E/DX2                !
 ! D23   D(5,2,6,10)          -167.2598         estimate D2E/DX2                !
 ! D24   D(5,2,6,11)            85.3004         estimate D2E/DX2                !
 ! D25   D(5,2,6,20)           -40.4518         estimate D2E/DX2                !
 ! D26   D(1,3,9,11)            57.3549         estimate D2E/DX2                !
 ! D27   D(1,3,9,12)           -53.1969         estimate D2E/DX2                !
 ! D28   D(1,3,9,24)          -178.7537         estimate D2E/DX2                !
 ! D29   D(7,3,9,11)           179.1987         estimate D2E/DX2                !
 ! D30   D(7,3,9,12)            68.6468         estimate D2E/DX2                !
 ! D31   D(7,3,9,24)           -56.91           estimate D2E/DX2                !
 ! D32   D(8,3,9,11)           -65.1922         estimate D2E/DX2                !
 ! D33   D(8,3,9,12)          -175.744          estimate D2E/DX2                !
 ! D34   D(8,3,9,24)            58.6991         estimate D2E/DX2                !
 ! D35   D(2,6,10,12)          -67.8391         estimate D2E/DX2                !
 ! D36   D(2,6,10,13)           54.0942         estimate D2E/DX2                !
 ! D37   D(2,6,10,15)          175.1307         estimate D2E/DX2                !
 ! D38   D(11,6,10,12)          47.5467         estimate D2E/DX2                !
 ! D39   D(11,6,10,13)         169.48           estimate D2E/DX2                !
 ! D40   D(11,6,10,15)         -69.4836         estimate D2E/DX2                !
 ! D41   D(20,6,10,12)         167.953          estimate D2E/DX2                !
 ! D42   D(20,6,10,13)         -70.1137         estimate D2E/DX2                !
 ! D43   D(20,6,10,15)          50.9228         estimate D2E/DX2                !
 ! D44   D(2,6,11,9)            62.9062         estimate D2E/DX2                !
 ! D45   D(2,6,11,16)          -54.6975         estimate D2E/DX2                !
 ! D46   D(2,6,11,19)         -176.3505         estimate D2E/DX2                !
 ! D47   D(10,6,11,9)          -53.2845         estimate D2E/DX2                !
 ! D48   D(10,6,11,16)        -170.8882         estimate D2E/DX2                !
 ! D49   D(10,6,11,19)          67.4588         estimate D2E/DX2                !
 ! D50   D(20,6,11,9)         -173.8803         estimate D2E/DX2                !
 ! D51   D(20,6,11,16)          68.5161         estimate D2E/DX2                !
 ! D52   D(20,6,11,19)         -53.137          estimate D2E/DX2                !
 ! D53   D(2,6,20,21)          170.6957         estimate D2E/DX2                !
 ! D54   D(2,6,20,22)          -67.979          estimate D2E/DX2                !
 ! D55   D(2,6,20,23)           51.6983         estimate D2E/DX2                !
 ! D56   D(10,6,20,21)         -64.0512         estimate D2E/DX2                !
 ! D57   D(10,6,20,22)          57.2741         estimate D2E/DX2                !
 ! D58   D(10,6,20,23)         176.9514         estimate D2E/DX2                !
 ! D59   D(11,6,20,21)          46.9746         estimate D2E/DX2                !
 ! D60   D(11,6,20,22)         168.2998         estimate D2E/DX2                !
 ! D61   D(11,6,20,23)         -72.0229         estimate D2E/DX2                !
 ! D62   D(3,9,11,6)           -73.1118         estimate D2E/DX2                !
 ! D63   D(3,9,11,16)           46.4408         estimate D2E/DX2                !
 ! D64   D(3,9,11,19)          169.7769         estimate D2E/DX2                !
 ! D65   D(12,9,11,6)           39.8623         estimate D2E/DX2                !
 ! D66   D(12,9,11,16)         159.4149         estimate D2E/DX2                !
 ! D67   D(12,9,11,19)         -77.2491         estimate D2E/DX2                !
 ! D68   D(24,9,11,6)          165.9582         estimate D2E/DX2                !
 ! D69   D(24,9,11,16)         -74.4892         estimate D2E/DX2                !
 ! D70   D(24,9,11,19)          48.8468         estimate D2E/DX2                !
 ! D71   D(3,9,12,10)          101.8781         estimate D2E/DX2                !
 ! D72   D(3,9,12,17)          -16.8018         estimate D2E/DX2                !
 ! D73   D(3,9,12,18)         -137.8312         estimate D2E/DX2                !
 ! D74   D(11,9,12,10)         -10.1624         estimate D2E/DX2                !
 ! D75   D(11,9,12,17)        -128.8422         estimate D2E/DX2                !
 ! D76   D(11,9,12,18)         110.1284         estimate D2E/DX2                !
 ! D77   D(24,9,12,10)        -135.8253         estimate D2E/DX2                !
 ! D78   D(24,9,12,17)         105.4949         estimate D2E/DX2                !
 ! D79   D(24,9,12,18)         -15.5345         estimate D2E/DX2                !
 ! D80   D(3,9,24,25)          179.7963         estimate D2E/DX2                !
 ! D81   D(3,9,24,26)          -60.2893         estimate D2E/DX2                !
 ! D82   D(3,9,24,27)           59.3501         estimate D2E/DX2                !
 ! D83   D(11,9,24,25)         -61.2967         estimate D2E/DX2                !
 ! D84   D(11,9,24,26)          58.6177         estimate D2E/DX2                !
 ! D85   D(11,9,24,27)         178.2571         estimate D2E/DX2                !
 ! D86   D(12,9,24,25)          58.76           estimate D2E/DX2                !
 ! D87   D(12,9,24,26)         178.6745         estimate D2E/DX2                !
 ! D88   D(12,9,24,27)         -61.6862         estimate D2E/DX2                !
 ! D89   D(6,10,12,9)          -23.1907         estimate D2E/DX2                !
 ! D90   D(6,10,12,17)          95.6648         estimate D2E/DX2                !
 ! D91   D(6,10,12,18)        -145.0466         estimate D2E/DX2                !
 ! D92   D(13,10,12,9)        -145.3827         estimate D2E/DX2                !
 ! D93   D(13,10,12,17)        -26.5272         estimate D2E/DX2                !
 ! D94   D(13,10,12,18)         92.7614         estimate D2E/DX2                !
 ! D95   D(15,10,12,9)          94.9348         estimate D2E/DX2                !
 ! D96   D(15,10,12,17)       -146.2098         estimate D2E/DX2                !
 ! D97   D(15,10,12,18)        -26.9211         estimate D2E/DX2                !
 ! D98   D(6,10,15,14)         -65.0505         estimate D2E/DX2                !
 ! D99   D(6,10,15,28)          59.2119         estimate D2E/DX2                !
 ! D100  D(12,10,15,14)       -178.3228         estimate D2E/DX2                !
 ! D101  D(12,10,15,28)        -54.0604         estimate D2E/DX2                !
 ! D102  D(13,10,15,14)         59.0386         estimate D2E/DX2                !
 ! D103  D(13,10,15,28)       -176.699          estimate D2E/DX2                !
 ! D104  D(6,11,19,28)         -57.9262         estimate D2E/DX2                !
 ! D105  D(6,11,19,31)         122.0738         estimate D2E/DX2                !
 ! D106  D(9,11,19,28)          53.6258         estimate D2E/DX2                !
 ! D107  D(9,11,19,31)        -126.3741         estimate D2E/DX2                !
 ! D108  D(16,11,19,28)        177.8574         estimate D2E/DX2                !
 ! D109  D(16,11,19,31)         -2.1426         estimate D2E/DX2                !
 ! D110  D(10,15,28,19)        -40.3339         estimate D2E/DX2                !
 ! D111  D(10,15,28,29)         83.3954         estimate D2E/DX2                !
 ! D112  D(10,15,28,30)       -160.5305         estimate D2E/DX2                !
 ! D113  D(14,15,28,19)         82.9946         estimate D2E/DX2                !
 ! D114  D(14,15,28,29)       -153.2762         estimate D2E/DX2                !
 ! D115  D(14,15,28,30)        -37.2021         estimate D2E/DX2                !
 ! D116  D(11,19,28,15)         40.5516         estimate D2E/DX2                !
 ! D117  D(11,19,28,29)        -80.9381         estimate D2E/DX2                !
 ! D118  D(11,19,28,30)        160.6606         estimate D2E/DX2                !
 ! D119  D(31,19,28,15)       -139.4484         estimate D2E/DX2                !
 ! D120  D(31,19,28,29)         99.0618         estimate D2E/DX2                !
 ! D121  D(31,19,28,30)        -19.3395         estimate D2E/DX2                !
 ! D122  D(11,19,31,32)       -147.6735         estimate D2E/DX2                !
 ! D123  D(11,19,31,33)        -32.2045         estimate D2E/DX2                !
 ! D124  D(11,19,31,34)         90.061          estimate D2E/DX2                !
 ! D125  D(28,19,31,32)         32.3265         estimate D2E/DX2                !
 ! D126  D(28,19,31,33)        147.7955         estimate D2E/DX2                !
 ! D127  D(28,19,31,34)        -89.939          estimate D2E/DX2                !
 ! D128  D(19,31,34,35)         90.0            estimate D2E/DX2                !
 ! D129  D(19,31,34,36)        -90.0            estimate D2E/DX2                !
 ! D130  D(32,31,34,35)        -32.3178         estimate D2E/DX2                !
 ! D131  D(32,31,34,36)        147.6821         estimate D2E/DX2                !
 ! D132  D(33,31,34,35)       -147.6821         estimate D2E/DX2                !
 ! D133  D(33,31,34,36)         32.3178         estimate D2E/DX2                !
 ! D134  D(31,34,35,37)        180.0            estimate D2E/DX2                !
 ! D135  D(31,34,35,40)          0.0            estimate D2E/DX2                !
 ! D136  D(36,34,35,37)          0.0            estimate D2E/DX2                !
 ! D137  D(36,34,35,40)        180.0            estimate D2E/DX2                !
 ! D138  D(31,34,36,38)        180.0            estimate D2E/DX2                !
 ! D139  D(31,34,36,41)          0.0            estimate D2E/DX2                !
 ! D140  D(35,34,36,38)          0.0            estimate D2E/DX2                !
 ! D141  D(35,34,36,41)       -180.0            estimate D2E/DX2                !
 ! D142  D(34,35,37,39)          0.0            estimate D2E/DX2                !
 ! D143  D(34,35,37,42)        180.0            estimate D2E/DX2                !
 ! D144  D(40,35,37,39)       -180.0            estimate D2E/DX2                !
 ! D145  D(40,35,37,42)          0.0            estimate D2E/DX2                !
 ! D146  D(34,36,38,39)          0.0001         estimate D2E/DX2                !
 ! D147  D(34,36,38,43)        180.0            estimate D2E/DX2                !
 ! D148  D(41,36,38,39)       -180.0            estimate D2E/DX2                !
 ! D149  D(41,36,38,43)         -0.0001         estimate D2E/DX2                !
 ! D150  D(35,37,39,38)          0.0            estimate D2E/DX2                !
 ! D151  D(35,37,39,44)        180.0            estimate D2E/DX2                !
 ! D152  D(42,37,39,38)       -180.0            estimate D2E/DX2                !
 ! D153  D(42,37,39,44)          0.0            estimate D2E/DX2                !
 ! D154  D(36,38,39,37)          0.0            estimate D2E/DX2                !
 ! D155  D(36,38,39,44)        180.0            estimate D2E/DX2                !
 ! D156  D(43,38,39,37)       -179.9999         estimate D2E/DX2                !
 ! D157  D(43,38,39,44)          0.0001         estimate D2E/DX2                !
 ! D158  D(1,45,47,48)        -105.1439         estimate D2E/DX2                !
 ! D159  D(46,45,47,48)         17.59           estimate D2E/DX2                !
 ! D160  D(45,47,48,49)        -62.5569         estimate D2E/DX2                !
 ! D161  D(45,47,48,53)         61.3054         estimate D2E/DX2                !
 ! D162  D(45,47,48,57)        179.4045         estimate D2E/DX2                !
 ! D163  D(47,48,49,50)        -54.8116         estimate D2E/DX2                !
 ! D164  D(47,48,49,51)         66.5674         estimate D2E/DX2                !
 ! D165  D(47,48,49,52)       -173.595          estimate D2E/DX2                !
 ! D166  D(53,48,49,50)       -176.7808         estimate D2E/DX2                !
 ! D167  D(53,48,49,51)        -55.4018         estimate D2E/DX2                !
 ! D168  D(53,48,49,52)         64.4358         estimate D2E/DX2                !
 ! D169  D(57,48,49,50)         57.8054         estimate D2E/DX2                !
 ! D170  D(57,48,49,51)        179.1843         estimate D2E/DX2                !
 ! D171  D(57,48,49,52)        -60.978          estimate D2E/DX2                !
 ! D172  D(47,48,53,54)        -66.7053         estimate D2E/DX2                !
 ! D173  D(47,48,53,55)         54.7564         estimate D2E/DX2                !
 ! D174  D(47,48,53,56)        173.5079         estimate D2E/DX2                !
 ! D175  D(49,48,53,54)         55.1838         estimate D2E/DX2                !
 ! D176  D(49,48,53,55)        176.6454         estimate D2E/DX2                !
 ! D177  D(49,48,53,56)        -64.603          estimate D2E/DX2                !
 ! D178  D(57,48,53,54)       -179.4014         estimate D2E/DX2                !
 ! D179  D(57,48,53,55)        -57.9397         estimate D2E/DX2                !
 ! D180  D(57,48,53,56)         60.8118         estimate D2E/DX2                !
 ! D181  D(47,48,57,58)        -60.4274         estimate D2E/DX2                !
 ! D182  D(47,48,57,59)         60.0226         estimate D2E/DX2                !
 ! D183  D(47,48,57,60)        179.7823         estimate D2E/DX2                !
 ! D184  D(49,48,57,58)       -177.207          estimate D2E/DX2                !
 ! D185  D(49,48,57,59)        -56.7571         estimate D2E/DX2                !
 ! D186  D(49,48,57,60)         63.0026         estimate D2E/DX2                !
 ! D187  D(53,48,57,58)         56.5161         estimate D2E/DX2                !
 ! D188  D(53,48,57,59)        176.966          estimate D2E/DX2                !
 ! D189  D(53,48,57,60)        -63.2743         estimate D2E/DX2                !
 --------------------------------------------------------------------------------
 Trust Radius=3.00D-01 FncErr=1.00D-07 GrdErr=1.00D-06 EigMax=2.50D+02 EigMin=1.00D-04
 Number of steps in this run=    360 maximum allowed number of steps=    360.
 GradGradGradGradGradGradGradGradGradGradGradGradGradGradGradGradGradGrad

 Leave Link  103 at Fri Mar 12 18:16:08 2021, MaxMem=  2684354560 cpu:               0.3 elap:               0.0
 (Enter /opt/g16avx/l202.exe)
 Stoichiometry    C22H33N3O2
 Framework group  C1[X(C22H33N3O2)]
 Deg. of freedom   174
 Full point group                 C1      NOp   1
 Largest Abelian subgroup         C1      NOp   1
 Largest concise Abelian subgroup C1      NOp   1
                         Standard orientation:                         
 ---------------------------------------------------------------------
 Center     Atomic      Atomic             Coordinates (Angstroms)
 Number     Number       Type             X           Y           Z
 ---------------------------------------------------------------------
      1          7           0        1.856558    0.336070   -0.997595
      2          6           0        1.306633    1.607247   -1.231152
      3          6           0        1.035020   -0.665005   -0.450739
      4          1           0        2.078850    2.347908   -0.973963
      5          1           0        1.188895    1.695910   -2.326509
      6          6           0       -0.031185    1.994138   -0.571310
      7          1           0        1.681227   -1.330100    0.138565
      8          1           0        0.648857   -1.288933   -1.276810
      9          6           0       -0.142940   -0.158699    0.404186
     10          6           0        0.134240    2.203860    0.953550
     11          6           0       -0.967848    0.777899   -0.514966
     12          6           0        0.439598    0.791223    1.473741
     13          1           0        0.920414    2.922382    1.202825
     14          1           0       -1.318312    3.598950    1.183734
     15          7           0       -1.102978    2.678338    1.548433
     16          1           0       -1.127209    0.314138   -1.488447
     17          1           0        1.516456    0.648219    1.564302
     18          1           0       -0.003495    0.643427    2.456627
     19          7           0       -2.248450    1.176746    0.027573
     20          6           0       -0.626069    3.194410   -1.301817
     21          1           0       -1.642978    3.393314   -0.969957
     22          1           0       -0.016554    4.081430   -1.135325
     23          1           0       -0.665123    3.001720   -2.372651
     24          6           0       -0.923555   -1.344133    0.953510
     25          1           0       -1.762130   -1.024690    1.566081
     26          1           0       -1.317188   -1.946576    0.136433
     27          1           0       -0.273106   -1.969981    1.561971
     28          6           0       -2.211552    1.772521    1.354652
     29          1           0       -2.150751    1.003169    2.141019
     30          1           0       -3.139070    2.331776    1.506100
     31          6           0       -3.504595    0.992198   -0.713335
     32          1           0       -4.200316    1.804222   -0.456997
     33          1           0       -3.308996    1.092113   -1.790776
     34          6           0       -4.186574   -0.362407   -0.445850
     35          6           0       -5.118532   -0.508985    0.595446
     36          6           0       -3.894532   -1.486886   -1.236160
     37          6           0       -5.735956   -1.734904    0.837793
     38          6           0       -4.511626   -2.713069   -0.994306
     39          6           0       -5.435398   -2.842925    0.043961
     40          1           0       -5.359542    0.346416    1.218880
     41          1           0       -3.177547   -1.396864   -2.046279
     42          1           0       -6.453338   -1.824460    1.648565
     43          1           0       -4.270113   -3.568722   -1.618434
     44          1           0       -5.916326   -3.798186    0.232591
     45          6           0        2.970576   -0.663718   -0.900713
     46          8           0        3.906817   -0.044548   -1.321195
     47          8           0        3.625044   -1.424454   -0.062445
     48          6           0        4.984599   -1.082955    0.382948
     49          6           0        5.921012   -1.079465   -0.815229
     50          1           0        5.867420   -2.041220   -1.346476
     51          1           0        5.675221   -0.269604   -1.513483
     52          1           0        6.953618   -0.937842   -0.465580
     53          6           0        4.959450    0.252008    1.110715
     54          1           0        4.708451    1.075601    0.430545
     55          1           0        4.228185    0.227616    1.932139
     56          1           0        5.952101    0.446229    1.541463
     57          6           0        5.318290   -2.218393    1.334563
     58          1           0        4.606025   -2.243635    2.171828
     59          1           0        5.281238   -3.184756    0.811368
     60          1           0        6.330007   -2.078801    1.739962
 ---------------------------------------------------------------------
 Rotational constants (GHZ):           0.3664801           0.1035832           0.0918319
 Leave Link  202 at Fri Mar 12 18:16:08 2021, MaxMem=  2684354560 cpu:               0.2 elap:               0.0
 (Enter /opt/g16avx/l301.exe)
 Standard basis: def2SVP (5D, 7F)
 Ernie: Thresh=  0.10000D-02 Tol=  0.10000D-05 Strict=F.
 There are   570 symmetry adapted cartesian basis functions of A   symmetry.
 There are   543 symmetry adapted basis functions of A   symmetry.
   543 basis functions,   906 primitive gaussians,   570 cartesian basis functions
   101 alpha electrons      101 beta electrons
       nuclear repulsion energy      2718.1680607939 Hartrees.
 IExCor= 1009 DFT=T Ex+Corr=PBE1PBE ExCW=0 ScaHFX=  0.250000
 ScaDFX=  0.750000  0.750000  1.000000  1.000000 ScalE2=  1.000000  1.000000
 IRadAn=      5 IRanWt=     -1 IRanGd=            0 ICorTp=0 IEmpDi=141
 NAtoms=   60 NActive=   60 NUniq=   60 SFac= 1.00D+00 NAtFMM=   60 NAOKFM=T Big=T
 Integral buffers will be    131072 words long.
 Raffenetti 2 integral format.
 Two-electron integral symmetry is turned on.
 R6Disp:  Grimme-D3(BJ) Dispersion energy=       -0.0739442780 Hartrees.
 Nuclear repulsion after empirical dispersion term =     2718.0941165159 Hartrees.
 ------------------------------------------------------------------------------
 Polarizable Continuum Model (PCM)
 =================================
 Model                : PCM.
 Atomic radii         : SMD-Coulomb.
 Polarization charges : Total charges.
 Charge compensation  : None.
 Solution method      : On-the-fly selection.
 Cavity type          : VdW (van der Waals Surface) (Alpha=1.000).
 Cavity algorithm     : GePol (No added spheres)
                        Default sphere list used, NSphG=   60.
                        Lebedev-Laikov grids with approx.  5.0 points / Ang**2.
                        Smoothing algorithm: York/Karplus (Gamma=1.0000).
                        Polarization charges: spherical gaussians, with
                                              point-specific exponents (IZeta= 3).
                        Self-potential: point-specific (ISelfS= 7).
                        Self-field    : sphere-specific E.n sum rule (ISelfD= 2).
 1st derivatives      : Analytical E(r).r(x)/FMM algorithm (CHGder, D1EAlg=3).
                        Cavity 1st derivative terms included.
 Solvent              : Benzene, Eps=   2.270600 Eps(inf)=   2.253301
 ------------------------------------------------------------------------------
 GePol: Number of generator spheres                  =      60
 GePol: Total number of spheres                      =      60
 GePol: Number of exposed spheres                    =      60 (100.00%)
 GePol: Number of points                             =    3755
 GePol: Average weight of points                     =       0.11
 GePol: Minimum weight of points                     =   0.28D-09
 GePol: Maximum weight of points                     =    0.17992
 GePol: Number of points with low weight             =     242
 GePol: Fraction of low-weight points (<1% of avg)   =       6.44%
 GePol: Cavity surface area                          =    412.909 Ang**2
 GePol: Cavity volume                                =    411.920 Ang**3
 ------------------------------------------------------------------------------
 Atomic radii for non-electrostatic terms: SMD-CDS.
 ------------------------------------------------------------------------------
 PCM non-electrostatic energy =        -0.0143379188 Hartrees.
 Nuclear repulsion after PCM non-electrostatic terms =     2718.0797785971 Hartrees.
 Leave Link  301 at Fri Mar 12 18:16:08 2021, MaxMem=  2684354560 cpu:               3.2 elap:               0.2
 (Enter /opt/g16avx/l302.exe)
 NPDir=0 NMtPBC=     1 NCelOv=     1 NCel=       1 NClECP=     1 NCelD=      1
         NCelK=      1 NCelE2=     1 NClLst=     1 CellRange=     0.0.
 One-electron integrals computed using PRISM.
 One-electron integral symmetry used in STVInt
   1 Symmetry operations used in ECPInt.
 ECPInt:  NShTT=   34191 NPrTT=  120255 LenC2=   29576 LenP2D=   71652.
 LDataN:  DoStor=T MaxTD1= 4 Len=   56
 NBasis=   543 RedAO= T EigKep=  2.90D-04  NBF=   543
 NBsUse=   543 1.00D-06 EigRej= -1.00D+00 NBFU=   543
 Precomputing XC quadrature grid using
 IXCGrd= 4 IRadAn=           5 IRanWt=          -1 IRanGd=           0 AccXCQ= 0.00D+00.
 Generated NRdTot=       0 NPtTot=           0 NUsed=           0 NTot=          32
 NSgBfM=   564   564   564   564   564 MxSgAt=    60 MxSgA2=    60.
 Leave Link  302 at Fri Mar 12 18:16:09 2021, MaxMem=  2684354560 cpu:              27.3 elap:               1.4
 (Enter /opt/g16avx/l303.exe)
 DipDrv:  MaxL=1.
 Leave Link  303 at Fri Mar 12 18:16:09 2021, MaxMem=  2684354560 cpu:               2.5 elap:               0.2
 (Enter /opt/g16avx/l401.exe)
 ExpMin= 1.22D-01 ExpMax= 2.27D+03 ExpMxC= 3.41D+02 IAcc=3 IRadAn=         5 AccDes= 0.00D+00
 Harris functional with IExCor= 1009 and IRadAn=       5 diagonalized for initial guess.
 HarFok:  IExCor= 1009 AccDes= 0.00D+00 IRadAn=         5 IDoV= 1 UseB2=F ITyADJ=14
 ICtDFT=  3500011 ScaDFX=  1.000000  1.000000  1.000000  1.000000
 FoFCou: FMM=F IPFlag=           0 FMFlag=      100000 FMFlg1=        2001
         NFxFlg=           0 DoJE=T BraDBF=F KetDBF=T FulRan=T
         wScrn=  0.000000 ICntrl=       500 IOpCl=  0 I1Cent=   200000004 NGrid=           0
         NMat0=    1 NMatS0=      1 NMatT0=    0 NMatD0=    1 NMtDS0=    0 NMtDT0=    0
 Petite list used in FoFCou.
 Harris En= -1170.89167055807    
 JPrj=0 DoOrth=F DoCkMO=F.
 Leave Link  401 at Fri Mar 12 18:16:14 2021, MaxMem=  2684354560 cpu:              90.8 elap:               4.6
 (Enter /opt/g16avx/l502.exe)
 Integral symmetry usage will be decided dynamically.
 Closed shell SCF:
 Using DIIS extrapolation, IDIIS=  1040.
 NGot=  2684354560 LenX=  2683687104 LenY=  2683361634
 Requested convergence on RMS density matrix=1.00D-08 within 128 cycles.
 Requested convergence on MAX density matrix=1.00D-06.
 Requested convergence on             energy=1.00D-06.
 No special actions if energy rises.
 Fock matrices will be formed incrementally for  20 cycles.

 Cycle   1  Pass 1  IDiag  1:
 FoFJK:  IHMeth= 1 ICntrl=       0 DoSepK=F KAlg= 0 I1Cent=           0 FoldK=F
 IRaf= 990000000 NMat=       1 IRICut=       1 DoRegI=T DoRafI=F ISym2E= 0 IDoP0=0 IntGTp=1.
 FoFCou: FMM=T IPFlag=           0 FMFlag=      100000 FMFlg1=        2001
         NFxFlg=           0 DoJE=F BraDBF=F KetDBF=F FulRan=T
         wScrn=  0.000000 ICntrl=         0 IOpCl=  0 I1Cent=           0 NGrid=           0
         NMat0=    1 NMatS0=      1 NMatT0=    0 NMatD0=    1 NMtDS0=    0 NMtDT0=    0
 Symmetry not used in FoFCou.
 FMM levels:  10  Number of levels for PrismC:   9
 Inv3:  Mode=1 IEnd=    42300075.
 Iteration    1 A*A^-1 deviation from unit magnitude is 3.77D-15 for    225.
 Iteration    1 A*A^-1 deviation from orthogonality  is 4.22D-15 for   3092    198.
 Iteration    1 A^-1*A deviation from unit magnitude is 3.77D-15 for    225.
 Iteration    1 A^-1*A deviation from orthogonality  is 3.14D-14 for   3089   3055.
 E= -1169.89267622830    
 DIIS: error= 2.16D-02 at cycle   1 NSaved=   1.
 NSaved= 1 IEnMin= 1 EnMin= -1169.89267622830     IErMin= 1 ErrMin= 2.16D-02
 ErrMax= 2.16D-02  0.00D+00 EMaxC= 1.00D-01 BMatC= 6.48D-01 BMatP= 6.48D-01
 IDIUse=3 WtCom= 7.84D-01 WtEn= 2.16D-01
 Coeff-Com:  0.100D+01
 Coeff-En:   0.100D+01
 Coeff:      0.100D+01
 Gap=     0.062 Goal=   None    Shift=    0.000
 GapD=    0.062 DampG=0.500 DampE=0.500 DampFc=0.2500 IDamp=-1.
 Damping current iteration by 2.50D-01
 RMSDP=4.39D-03 MaxDP=2.51D-01              OVMax= 3.60D-01

 Cycle   2  Pass 1  IDiag  1:
 RMSU=  1.08D-03    CP:  9.87D-01
 E= -1170.12731982804     Delta-E=       -0.234643599738 Rises=F Damp=T
 DIIS: error= 1.23D-02 at cycle   2 NSaved=   2.
 NSaved= 2 IEnMin= 2 EnMin= -1170.12731982804     IErMin= 2 ErrMin= 1.23D-02
 ErrMax= 1.23D-02  0.00D+00 EMaxC= 1.00D-01 BMatC= 1.52D-01 BMatP= 6.48D-01
 IDIUse=3 WtCom= 8.77D-01 WtEn= 1.23D-01
 Coeff-Com: -0.671D+00 0.167D+01
 Coeff-En:   0.000D+00 0.100D+01
 Coeff:     -0.588D+00 0.159D+01
 Gap=     0.175 Goal=   None    Shift=    0.000
 RMSDP=1.66D-03 MaxDP=6.24D-02 DE=-2.35D-01 OVMax= 2.78D-01

 Cycle   3  Pass 1  IDiag  1:
 RMSU=  1.50D-03    CP:  9.61D-01  1.56D+00
 E= -1170.47948676444     Delta-E=       -0.352166936402 Rises=F Damp=F
 DIIS: error= 1.24D-02 at cycle   3 NSaved=   3.
 NSaved= 3 IEnMin= 3 EnMin= -1170.47948676444     IErMin= 2 ErrMin= 1.23D-02
 ErrMax= 1.24D-02  0.00D+00 EMaxC= 1.00D-01 BMatC= 9.47D-02 BMatP= 1.52D-01
 IDIUse=3 WtCom= 8.76D-01 WtEn= 1.24D-01
 Coeff-Com: -0.455D+00 0.102D+01 0.437D+00
 Coeff-En:   0.000D+00 0.000D+00 0.100D+01
 Coeff:     -0.398D+00 0.892D+00 0.507D+00
 Gap=     0.142 Goal=   None    Shift=    0.000
 RMSDP=7.87D-04 MaxDP=7.70D-02 DE=-3.52D-01 OVMax= 1.23D-01

 Cycle   4  Pass 1  IDiag  1:
 RMSU=  5.99D-04    CP:  9.66D-01  1.69D+00  6.76D-01
 E= -1170.55047487522     Delta-E=       -0.070988110780 Rises=F Damp=F
 DIIS: error= 4.14D-03 at cycle   4 NSaved=   4.
 NSaved= 4 IEnMin= 4 EnMin= -1170.55047487522     IErMin= 4 ErrMin= 4.14D-03
 ErrMax= 4.14D-03  0.00D+00 EMaxC= 1.00D-01 BMatC= 1.17D-02 BMatP= 9.47D-02
 IDIUse=3 WtCom= 9.59D-01 WtEn= 4.14D-02
 Coeff-Com: -0.963D-01 0.206D+00 0.273D+00 0.617D+00
 Coeff-En:   0.000D+00 0.000D+00 0.101D+00 0.899D+00
 Coeff:     -0.923D-01 0.198D+00 0.266D+00 0.629D+00
 Gap=     0.155 Goal=   None    Shift=    0.000
 RMSDP=3.02D-04 MaxDP=2.36D-02 DE=-7.10D-02 OVMax= 4.09D-02

 Cycle   5  Pass 1  IDiag  1:
 RMSU=  1.78D-04    CP:  9.64D-01  1.64D+00  7.33D-01  6.32D-01
 E= -1170.55902582982     Delta-E=       -0.008550954604 Rises=F Damp=F
 DIIS: error= 8.70D-04 at cycle   5 NSaved=   5.
 NSaved= 5 IEnMin= 5 EnMin= -1170.55902582982     IErMin= 5 ErrMin= 8.70D-04
 ErrMax= 8.70D-04  0.00D+00 EMaxC= 1.00D-01 BMatC= 1.13D-03 BMatP= 1.17D-02
 IDIUse=3 WtCom= 9.91D-01 WtEn= 8.70D-03
 Coeff-Com: -0.215D-01 0.392D-01 0.106D+00 0.356D+00 0.520D+00
 Coeff-En:   0.000D+00 0.000D+00 0.000D+00 0.453D-01 0.955D+00
 Coeff:     -0.213D-01 0.389D-01 0.105D+00 0.354D+00 0.524D+00
 Gap=     0.146 Goal=   None    Shift=    0.000
 RMSDP=9.52D-05 MaxDP=7.32D-03 DE=-8.55D-03 OVMax= 1.39D-02

 Cycle   6  Pass 1  IDiag  1:
 RMSU=  4.54D-05    CP:  9.64D-01  1.65D+00  7.34D-01  7.16D-01  6.28D-01
 E= -1170.55994516052     Delta-E=       -0.000919330694 Rises=F Damp=F
 DIIS: error= 2.61D-04 at cycle   6 NSaved=   6.
 NSaved= 6 IEnMin= 6 EnMin= -1170.55994516052     IErMin= 6 ErrMin= 2.61D-04
 ErrMax= 2.61D-04  0.00D+00 EMaxC= 1.00D-01 BMatC= 6.98D-05 BMatP= 1.13D-03
 IDIUse=3 WtCom= 9.97D-01 WtEn= 2.61D-03
 Coeff-Com: -0.189D-02 0.139D-03 0.202D-01 0.993D-01 0.264D+00 0.618D+00
 Coeff-En:   0.000D+00 0.000D+00 0.000D+00 0.000D+00 0.000D+00 0.100D+01
 Coeff:     -0.188D-02 0.139D-03 0.201D-01 0.991D-01 0.263D+00 0.619D+00
 Gap=     0.147 Goal=   None    Shift=    0.000
 RMSDP=2.23D-05 MaxDP=1.82D-03 DE=-9.19D-04 OVMax= 2.46D-03

 Cycle   7  Pass 1  IDiag  1:
 RMSU=  1.54D-05    CP:  9.64D-01  1.65D+00  7.36D-01  7.13D-01  6.66D-01
                    CP:  6.82D-01
 E= -1170.56000087499     Delta-E=       -0.000055714478 Rises=F Damp=F
 DIIS: error= 8.92D-05 at cycle   7 NSaved=   7.
 NSaved= 7 IEnMin= 7 EnMin= -1170.56000087499     IErMin= 7 ErrMin= 8.92D-05
 ErrMax= 8.92D-05  0.00D+00 EMaxC= 1.00D-01 BMatC= 7.53D-06 BMatP= 6.98D-05
 IDIUse=1 WtCom= 1.00D+00 WtEn= 0.00D+00
 Coeff-Com: -0.985D-04-0.164D-02 0.534D-02 0.345D-01 0.121D+00 0.350D+00
 Coeff-Com:  0.491D+00
 Coeff:     -0.985D-04-0.164D-02 0.534D-02 0.345D-01 0.121D+00 0.350D+00
 Coeff:      0.491D+00
 Gap=     0.146 Goal=   None    Shift=    0.000
 RMSDP=7.96D-06 MaxDP=5.76D-04 DE=-5.57D-05 OVMax= 7.92D-04

 Cycle   8  Pass 1  IDiag  1:
 RMSU=  5.00D-06    CP:  9.64D-01  1.65D+00  7.36D-01  7.13D-01  6.69D-01
                    CP:  7.31D-01  6.28D-01
 E= -1170.56000711937     Delta-E=       -0.000006244371 Rises=F Damp=F
 DIIS: error= 2.54D-05 at cycle   8 NSaved=   8.
 NSaved= 8 IEnMin= 8 EnMin= -1170.56000711937     IErMin= 8 ErrMin= 2.54D-05
 ErrMax= 2.54D-05  0.00D+00 EMaxC= 1.00D-01 BMatC= 5.23D-07 BMatP= 7.53D-06
 IDIUse=1 WtCom= 1.00D+00 WtEn= 0.00D+00
 Coeff-Com:  0.132D-03-0.537D-03-0.310D-03 0.994D-03 0.184D-01 0.648D-01
 Coeff-Com:  0.231D+00 0.685D+00
 Coeff:      0.132D-03-0.537D-03-0.310D-03 0.994D-03 0.184D-01 0.648D-01
 Coeff:      0.231D+00 0.685D+00
 Gap=     0.146 Goal=   None    Shift=    0.000
 RMSDP=1.94D-06 MaxDP=1.18D-04 DE=-6.24D-06 OVMax= 1.40D-04

 Cycle   9  Pass 1  IDiag  1:
 RMSU=  1.51D-06    CP:  9.64D-01  1.65D+00  7.36D-01  7.13D-01  6.72D-01
                    CP:  7.35D-01  6.73D-01  8.94D-01
 E= -1170.56000754379     Delta-E=       -0.000000424429 Rises=F Damp=F
 DIIS: error= 6.68D-06 at cycle   9 NSaved=   9.
 NSaved= 9 IEnMin= 9 EnMin= -1170.56000754379     IErMin= 9 ErrMin= 6.68D-06
 ErrMax= 6.68D-06  0.00D+00 EMaxC= 1.00D-01 BMatC= 5.21D-08 BMatP= 5.23D-07
 IDIUse=1 WtCom= 1.00D+00 WtEn= 0.00D+00
 Coeff-Com:  0.650D-04-0.121D-03-0.595D-03-0.245D-02-0.849D-03 0.461D-03
 Coeff-Com:  0.758D-01 0.323D+00 0.605D+00
 Coeff:      0.650D-04-0.121D-03-0.595D-03-0.245D-02-0.849D-03 0.461D-03
 Coeff:      0.758D-01 0.323D+00 0.605D+00
 Gap=     0.146 Goal=   None    Shift=    0.000
 RMSDP=7.30D-07 MaxDP=4.34D-05 DE=-4.24D-07 OVMax= 1.05D-04

 Cycle  10  Pass 1  IDiag  1:
 RMSU=  5.52D-07    CP:  9.64D-01  1.65D+00  7.36D-01  7.13D-01  6.72D-01
                    CP:  7.38D-01  6.91D-01  9.40D-01  8.23D-01
 E= -1170.56000759547     Delta-E=       -0.000000051674 Rises=F Damp=F
 DIIS: error= 2.35D-06 at cycle  10 NSaved=  10.
 NSaved=10 IEnMin=10 EnMin= -1170.56000759547     IErMin=10 ErrMin= 2.35D-06
 ErrMax= 2.35D-06  0.00D+00 EMaxC= 1.00D-01 BMatC= 5.09D-09 BMatP= 5.21D-08
 IDIUse=1 WtCom= 1.00D+00 WtEn= 0.00D+00
 Coeff-Com:  0.106D-05 0.216D-04-0.221D-03-0.111D-02-0.198D-02-0.671D-02
 Coeff-Com:  0.125D-01 0.602D-01 0.263D+00 0.674D+00
 Coeff:      0.106D-05 0.216D-04-0.221D-03-0.111D-02-0.198D-02-0.671D-02
 Coeff:      0.125D-01 0.602D-01 0.263D+00 0.674D+00
 Gap=     0.146 Goal=   None    Shift=    0.000
 RMSDP=2.70D-07 MaxDP=1.42D-05 DE=-5.17D-08 OVMax= 5.12D-05

 Cycle  11  Pass 1  IDiag  1:
 RMSU=  1.83D-07    CP:  9.64D-01  1.65D+00  7.36D-01  7.13D-01  6.72D-01
                    CP:  7.38D-01  6.94D-01  9.64D-01  9.11D-01  1.03D+00
 E= -1170.56000760133     Delta-E=       -0.000000005865 Rises=F Damp=F
 DIIS: error= 5.28D-07 at cycle  11 NSaved=  11.
 NSaved=11 IEnMin=11 EnMin= -1170.56000760133     IErMin=11 ErrMin= 5.28D-07
 ErrMax= 5.28D-07  0.00D+00 EMaxC= 1.00D-01 BMatC= 7.06D-10 BMatP= 5.09D-09
 IDIUse=1 WtCom= 1.00D+00 WtEn= 0.00D+00
 Coeff-Com: -0.957D-05 0.267D-04-0.337D-04-0.214D-03-0.879D-03-0.374D-02
 Coeff-Com: -0.260D-02-0.170D-01 0.513D-01 0.287D+00 0.686D+00
 Coeff:     -0.957D-05 0.267D-04-0.337D-04-0.214D-03-0.879D-03-0.374D-02
 Coeff:     -0.260D-02-0.170D-01 0.513D-01 0.287D+00 0.686D+00
 Gap=     0.146 Goal=   None    Shift=    0.000
 RMSDP=1.35D-07 MaxDP=7.85D-06 DE=-5.87D-09 OVMax= 3.20D-05

 Cycle  12  Pass 1  IDiag  1:
 RMSU=  7.56D-08    CP:  9.64D-01  1.65D+00  7.36D-01  7.13D-01  6.72D-01
                    CP:  7.39D-01  6.96D-01  9.72D-01  9.47D-01  1.16D+00
                    CP:  1.10D+00
 E= -1170.56000760254     Delta-E=       -0.000000001208 Rises=F Damp=F
 DIIS: error= 2.97D-07 at cycle  12 NSaved=  12.
 NSaved=12 IEnMin=12 EnMin= -1170.56000760254     IErMin=12 ErrMin= 2.97D-07
 ErrMax= 2.97D-07  0.00D+00 EMaxC= 1.00D-01 BMatC= 1.15D-10 BMatP= 7.06D-10
 IDIUse=1 WtCom= 1.00D+00 WtEn= 0.00D+00
 Coeff-Com: -0.349D-05 0.512D-05 0.280D-04 0.132D-03 0.757D-04-0.158D-03
 Coeff-Com: -0.193D-02-0.181D-01-0.256D-01-0.365D-01 0.257D+00 0.825D+00
 Coeff:     -0.349D-05 0.512D-05 0.280D-04 0.132D-03 0.757D-04-0.158D-03
 Coeff:     -0.193D-02-0.181D-01-0.256D-01-0.365D-01 0.257D+00 0.825D+00
 Gap=     0.146 Goal=   None    Shift=    0.000
 RMSDP=8.24D-08 MaxDP=4.70D-06 DE=-1.21D-09 OVMax= 2.16D-05

 Cycle  13  Pass 1  IDiag  1:
 RMSU=  2.82D-08    CP:  9.64D-01  1.65D+00  7.36D-01  7.13D-01  6.72D-01
                    CP:  7.39D-01  6.96D-01  9.76D-01  9.67D-01  1.25D+00
                    CP:  1.32D+00  1.16D+00
 E= -1170.56000760286     Delta-E=       -0.000000000318 Rises=F Damp=F
 DIIS: error= 9.42D-08 at cycle  13 NSaved=  13.
 NSaved=13 IEnMin=13 EnMin= -1170.56000760286     IErMin=13 ErrMin= 9.42D-08
 ErrMax= 9.42D-08  0.00D+00 EMaxC= 1.00D-01 BMatC= 1.48D-11 BMatP= 1.15D-10
 IDIUse=1 WtCom= 1.00D+00 WtEn= 0.00D+00
 Coeff-Com:  0.546D-06-0.226D-05 0.156D-04 0.757D-04 0.135D-03 0.369D-03
 Coeff-Com: -0.794D-04-0.462D-02-0.148D-01-0.570D-01 0.455D-02 0.296D+00
 Coeff-Com:  0.775D+00
 Coeff:      0.546D-06-0.226D-05 0.156D-04 0.757D-04 0.135D-03 0.369D-03
 Coeff:     -0.794D-04-0.462D-02-0.148D-01-0.570D-01 0.455D-02 0.296D+00
 Coeff:      0.775D+00
 Gap=     0.146 Goal=   None    Shift=    0.000
 RMSDP=3.12D-08 MaxDP=1.75D-06 DE=-3.18D-10 OVMax= 8.30D-06

 Cycle  14  Pass 1  IDiag  1:
 RMSU=  1.09D-08    CP:  9.64D-01  1.65D+00  7.36D-01  7.13D-01  6.72D-01
                    CP:  7.39D-01  6.97D-01  9.78D-01  9.73D-01  1.28D+00
                    CP:  1.40D+00  1.35D+00  1.11D+00
 E= -1170.56000760291     Delta-E=       -0.000000000049 Rises=F Damp=F
 DIIS: error= 6.46D-08 at cycle  14 NSaved=  14.
 NSaved=14 IEnMin=14 EnMin= -1170.56000760291     IErMin=14 ErrMin= 6.46D-08
 ErrMax= 6.46D-08  0.00D+00 EMaxC= 1.00D-01 BMatC= 3.08D-12 BMatP= 1.48D-11
 IDIUse=1 WtCom= 1.00D+00 WtEn= 0.00D+00
 Coeff-Com:  0.101D-05-0.209D-05 0.240D-05 0.111D-04 0.511D-04 0.206D-03
 Coeff-Com:  0.456D-03 0.139D-02-0.174D-02-0.221D-01-0.478D-01-0.188D-01
 Coeff-Com:  0.383D+00 0.706D+00
 Coeff:      0.101D-05-0.209D-05 0.240D-05 0.111D-04 0.511D-04 0.206D-03
 Coeff:      0.456D-03 0.139D-02-0.174D-02-0.221D-01-0.478D-01-0.188D-01
 Coeff:      0.383D+00 0.706D+00
 Gap=     0.146 Goal=   None    Shift=    0.000
 RMSDP=1.28D-08 MaxDP=6.62D-07 DE=-4.91D-11 OVMax= 3.23D-06

 Cycle  15  Pass 1  IDiag  1:
 RMSU=  4.46D-09    CP:  9.64D-01  1.65D+00  7.36D-01  7.13D-01  6.72D-01
                    CP:  7.39D-01  6.97D-01  9.78D-01  9.76D-01  1.29D+00
                    CP:  1.44D+00  1.41D+00  1.26D+00  9.51D-01
 E= -1170.56000760289     Delta-E=        0.000000000015 Rises=F Damp=F
 DIIS: error= 2.66D-08 at cycle  15 NSaved=  15.
 NSaved=15 IEnMin=14 EnMin= -1170.56000760291     IErMin=15 ErrMin= 2.66D-08
 ErrMax= 2.66D-08  0.00D+00 EMaxC= 1.00D-01 BMatC= 2.67D-13 BMatP= 3.08D-12
 IDIUse=1 WtCom= 1.00D+00 WtEn= 0.00D+00
 Coeff-Com:  0.263D-06-0.493D-06-0.592D-06-0.264D-05 0.804D-05 0.517D-04
 Coeff-Com:  0.214D-03 0.108D-02 0.731D-03-0.338D-02-0.203D-01-0.384D-01
 Coeff-Com:  0.787D-01 0.300D+00 0.682D+00
 Coeff:      0.263D-06-0.493D-06-0.592D-06-0.264D-05 0.804D-05 0.517D-04
 Coeff:      0.214D-03 0.108D-02 0.731D-03-0.338D-02-0.203D-01-0.384D-01
 Coeff:      0.787D-01 0.300D+00 0.682D+00
 Gap=     0.146 Goal=   None    Shift=    0.000
 RMSDP=3.04D-09 MaxDP=1.48D-07 DE= 1.55D-11 OVMax= 6.62D-07

 Error on total polarization charges =  0.04024
 SCF Done:  E(RPBE1PBE) =  -1170.56000760     A.U. after   15 cycles
            NFock= 15  Conv=0.30D-08     -V/T= 2.0098
 KE= 1.159222149925D+03 PE=-8.154449029814D+03 EE= 3.106587093690D+03
 SMD-CDS (non-electrostatic) energy       (kcal/mol) =      -9.00
 (included in total energy above)
 Leave Link  502 at Fri Mar 12 18:20:46 2021, MaxMem=  2684354560 cpu:            5403.6 elap:             272.3
 (Enter /opt/g16avx/l601.exe)
 Copying SCF densities to generalized density rwf, IOpCl= 0 IROHF=0.

 **********************************************************************

            Population analysis using the SCF density.

 **********************************************************************

 Orbital symmetries:
       Occupied  (A) (A) (A) (A) (A) (A) (A) (A) (A) (A) (A) (A)
                 (A) (A) (A) (A) (A) (A) (A) (A) (A) (A) (A) (A)
                 (A) (A) (A) (A) (A) (A) (A) (A) (A) (A) (A) (A)
                 (A) (A) (A) (A) (A) (A) (A) (A) (A) (A) (A) (A)
                 (A) (A) (A) (A) (A) (A) (A) (A) (A) (A) (A) (A)
                 (A) (A) (A) (A) (A) (A) (A) (A) (A) (A) (A) (A)
                 (A) (A) (A) (A) (A) (A) (A) (A) (A) (A) (A) (A)
                 (A) (A) (A) (A) (A) (A) (A) (A) (A) (A) (A) (A)
                 (A) (A) (A) (A) (A)
       Virtual   (A) (A) (A) (A) (A) (A) (A) (A) (A) (A) (A) (A)
                 (A) (A) (A) (A) (A) (A) (A) (A) (A) (A) (A) (A)
                 (A) (A) (A) (A) (A) (A) (A) (A) (A) (A) (A) (A)
                 (A) (A) (A) (A) (A) (A) (A) (A) (A) (A) (A) (A)
                 (A) (A) (A) (A) (A) (A) (A) (A) (A) (A) (A) (A)
                 (A) (A) (A) (A) (A) (A) (A) (A) (A) (A) (A) (A)
                 (A) (A) (A) (A) (A) (A) (A) (A) (A) (A) (A) (A)
                 (A) (A) (A) (A) (A) (A) (A) (A) (A) (A) (A) (A)
                 (A) (A) (A) (A) (A) (A) (A) (A) (A) (A) (A) (A)
                 (A) (A) (A) (A) (A) (A) (A) (A) (A) (A) (A) (A)
                 (A) (A) (A) (A) (A) (A) (A) (A) (A) (A) (A) (A)
                 (A) (A) (A) (A) (A) (A) (A) (A) (A) (A) (A) (A)
                 (A) (A) (A) (A) (A) (A) (A) (A) (A) (A) (A) (A)
                 (A) (A) (A) (A) (A) (A) (A) (A) (A) (A) (A) (A)
                 (A) (A) (A) (A) (A) (A) (A) (A) (A) (A) (A) (A)
                 (A) (A) (A) (A) (A) (A) (A) (A) (A) (A) (A) (A)
                 (A) (A) (A) (A) (A) (A) (A) (A) (A) (A) (A) (A)
                 (A) (A) (A) (A) (A) (A) (A) (A) (A) (A) (A) (A)
                 (A) (A) (A) (A) (A) (A) (A) (A) (A) (A) (A) (A)
                 (A) (A) (A) (A) (A) (A) (A) (A) (A) (A) (A) (A)
                 (A) (A) (A) (A) (A) (A) (A) (A) (A) (A) (A) (A)
                 (A) (A) (A) (A) (A) (A) (A) (A) (A) (A) (A) (A)
                 (A) (A) (A) (A) (A) (A) (A) (A) (A) (A) (A) (A)
                 (A) (A) (A) (A) (A) (A) (A) (A) (A) (A) (A) (A)
                 (A) (A) (A) (A) (A) (A) (A) (A) (A) (A) (A) (A)
                 (A) (A) (A) (A) (A) (A) (A) (A) (A) (A) (A) (A)
                 (A) (A) (A) (A) (A) (A) (A) (A) (A) (A) (A) (A)
                 (A) (A) (A) (A) (A) (A) (A) (A) (A) (A) (A) (A)
                 (A) (A) (A) (A) (A) (A) (A) (A) (A) (A) (A) (A)
                 (A) (A) (A) (A) (A) (A) (A) (A) (A) (A) (A) (A)
                 (A) (A) (A) (A) (A) (A) (A) (A) (A) (A) (A) (A)
                 (A) (A) (A) (A) (A) (A) (A) (A) (A) (A) (A) (A)
                 (A) (A) (A) (A) (A) (A) (A) (A) (A) (A) (A) (A)
                 (A) (A) (A) (A) (A) (A) (A) (A) (A) (A) (A) (A)
                 (A) (A) (A) (A) (A) (A) (A) (A) (A) (A) (A) (A)
                 (A) (A) (A) (A) (A) (A) (A) (A) (A) (A) (A) (A)
                 (A) (A) (A) (A) (A) (A) (A) (A) (A) (A)
 The electronic state is 1-A.
 Alpha  occ. eigenvalues --  -19.23094 -19.13199 -14.39535 -14.37410 -14.36738
 Alpha  occ. eigenvalues --  -10.37619 -10.29567 -10.27372 -10.26915 -10.26598
 Alpha  occ. eigenvalues --  -10.25578 -10.25197 -10.24707 -10.24148 -10.24038
 Alpha  occ. eigenvalues --  -10.23587 -10.23580 -10.23453 -10.23446 -10.23436
 Alpha  occ. eigenvalues --  -10.23204 -10.22069 -10.21914 -10.21885 -10.21597
 Alpha  occ. eigenvalues --  -10.20952 -10.19825  -1.15524  -0.99671  -0.97513
 Alpha  occ. eigenvalues --   -0.95153  -0.89459  -0.86918  -0.84842  -0.82733
 Alpha  occ. eigenvalues --   -0.80917  -0.77627  -0.75871  -0.73958  -0.73023
 Alpha  occ. eigenvalues --   -0.70631  -0.70112  -0.69364  -0.69144  -0.66447
 Alpha  occ. eigenvalues --   -0.64398  -0.62595  -0.61796  -0.61513  -0.59116
 Alpha  occ. eigenvalues --   -0.56796  -0.55321  -0.54359  -0.53026  -0.52290
 Alpha  occ. eigenvalues --   -0.51542  -0.50866  -0.49508  -0.48674  -0.47679
 Alpha  occ. eigenvalues --   -0.46856  -0.46698  -0.46412  -0.46087  -0.45432
 Alpha  occ. eigenvalues --   -0.45314  -0.43658  -0.43445  -0.43030  -0.42575
 Alpha  occ. eigenvalues --   -0.42220  -0.41051  -0.40909  -0.40607  -0.40308
 Alpha  occ. eigenvalues --   -0.39496  -0.39061  -0.38949  -0.38354  -0.38172
 Alpha  occ. eigenvalues --   -0.37748  -0.37627  -0.36839  -0.35869  -0.35431
 Alpha  occ. eigenvalues --   -0.35121  -0.34664  -0.34366  -0.33904  -0.33310
 Alpha  occ. eigenvalues --   -0.32711  -0.32187  -0.32034  -0.29730  -0.29149
 Alpha  occ. eigenvalues --   -0.26533  -0.26122  -0.23602  -0.21320  -0.21009
 Alpha  occ. eigenvalues --   -0.19815
 Alpha virt. eigenvalues --   -0.05179  -0.00469  -0.00384   0.05016   0.06992
 Alpha virt. eigenvalues --    0.07362   0.08315   0.08731   0.09407   0.09663
 Alpha virt. eigenvalues --    0.10095   0.10870   0.11328   0.11644   0.12014
 Alpha virt. eigenvalues --    0.12421   0.12880   0.13923   0.14178   0.14436
 Alpha virt. eigenvalues --    0.14477   0.15003   0.15400   0.15511   0.15875
 Alpha virt. eigenvalues --    0.16316   0.16671   0.16953   0.17523   0.18127
 Alpha virt. eigenvalues --    0.18386   0.18440   0.19044   0.19418   0.19867
 Alpha virt. eigenvalues --    0.20470   0.20674   0.20838   0.21174   0.21899
 Alpha virt. eigenvalues --    0.21972   0.22585   0.22722   0.23077   0.24111
 Alpha virt. eigenvalues --    0.24693   0.25349   0.26481   0.26936   0.27275
 Alpha virt. eigenvalues --    0.27807   0.28340   0.28942   0.29329   0.29993
 Alpha virt. eigenvalues --    0.30532   0.31246   0.31411   0.32589   0.33056
 Alpha virt. eigenvalues --    0.33620   0.34762   0.35133   0.36482   0.38298
 Alpha virt. eigenvalues --    0.40399   0.41519   0.41718   0.42286   0.42761
 Alpha virt. eigenvalues --    0.43813   0.44808   0.45186   0.45576   0.46703
 Alpha virt. eigenvalues --    0.47454   0.47653   0.48045   0.48788   0.49254
 Alpha virt. eigenvalues --    0.49739   0.49941   0.50315   0.51545   0.52229
 Alpha virt. eigenvalues --    0.53708   0.53832   0.54340   0.54471   0.55104
 Alpha virt. eigenvalues --    0.55340   0.55811   0.56063   0.56850   0.58105
 Alpha virt. eigenvalues --    0.58836   0.59436   0.60009   0.60040   0.61321
 Alpha virt. eigenvalues --    0.61964   0.62439   0.63096   0.63397   0.63850
 Alpha virt. eigenvalues --    0.64816   0.65015   0.65080   0.65410   0.65747
 Alpha virt. eigenvalues --    0.66208   0.66431   0.66542   0.66686   0.67102
 Alpha virt. eigenvalues --    0.67305   0.67622   0.67723   0.68413   0.68792
 Alpha virt. eigenvalues --    0.69428   0.69504   0.69892   0.70028   0.70273
 Alpha virt. eigenvalues --    0.70478   0.70731   0.71323   0.71687   0.71826
 Alpha virt. eigenvalues --    0.71928   0.72154   0.72811   0.72884   0.73218
 Alpha virt. eigenvalues --    0.73384   0.73454   0.73697   0.74145   0.74848
 Alpha virt. eigenvalues --    0.74898   0.75709   0.76013   0.76144   0.76388
 Alpha virt. eigenvalues --    0.76664   0.76991   0.77877   0.78284   0.78529
 Alpha virt. eigenvalues --    0.79480   0.79896   0.80709   0.81319   0.81667
 Alpha virt. eigenvalues --    0.82155   0.83109   0.83636   0.84306   0.84661
 Alpha virt. eigenvalues --    0.86619   0.87004   0.87401   0.88087   0.88543
 Alpha virt. eigenvalues --    0.90839   0.92764   0.93645   0.94796   0.96075
 Alpha virt. eigenvalues --    0.97643   0.99642   1.01181   1.02429   1.04446
 Alpha virt. eigenvalues --    1.05382   1.05703   1.06182   1.07539   1.08025
 Alpha virt. eigenvalues --    1.09807   1.11530   1.12562   1.13976   1.14125
 Alpha virt. eigenvalues --    1.15414   1.16080   1.17206   1.18203   1.18970
 Alpha virt. eigenvalues --    1.20137   1.20792   1.21832   1.22713   1.23883
 Alpha virt. eigenvalues --    1.24972   1.25347   1.25892   1.26175   1.26892
 Alpha virt. eigenvalues --    1.28466   1.29606   1.30006   1.31654   1.32031
 Alpha virt. eigenvalues --    1.32398   1.34263   1.35130   1.36057   1.37202
 Alpha virt. eigenvalues --    1.37587   1.39247   1.40084   1.40513   1.42123
 Alpha virt. eigenvalues --    1.43643   1.44997   1.48407   1.49072   1.50642
 Alpha virt. eigenvalues --    1.52778   1.53387   1.54047   1.54759   1.54963
 Alpha virt. eigenvalues --    1.55537   1.56750   1.57334   1.58536   1.59195
 Alpha virt. eigenvalues --    1.59332   1.60558   1.61261   1.61866   1.64404
 Alpha virt. eigenvalues --    1.64462   1.65150   1.66213   1.66978   1.67729
 Alpha virt. eigenvalues --    1.70204   1.70523   1.70900   1.72314   1.72472
 Alpha virt. eigenvalues --    1.72948   1.73399   1.74088   1.74485   1.74679
 Alpha virt. eigenvalues --    1.75409   1.76029   1.76456   1.76955   1.77002
 Alpha virt. eigenvalues --    1.77483   1.78071   1.78507   1.78787   1.79242
[...]
 9,0.00000012,0.00000375,-0.00000716,0.00000419,-0.00000227,-0.00000128
 ,0.00000154,-0.00000169,-0.00000626,0.00000352,-0.00000154,-0.00000281
 ,-0.00000121,-0.00000106,0.00000168,-0.00000395,-0.00000041,0.00000276
 ,-0.00000185,0.00000005,0.00000165,-0.00000336,-0.00000116,0.00000273,
 -0.00000188,-0.00000063,0.00000270,-0.00016597,0.00056665,0.00022164,0
 .00000318,-0.00053405,0.00009161,0.00102934,-0.00079822,-0.00080051,-0
 .00636754,0.00382170,-0.00732618,-0.00022232,0.00211989,0.00162801,0.0
 0036073,-0.00013060,0.00021088,0.00008444,0.00049862,-0.00068472,0.000
 11756,-0.00008548,-0.00020430,0.00015835,-0.00120710,0.00027832,-0.000
 09784,-0.00002811,0.00014887,0.00051546,-0.00013332,0.00001005,0.00001
 108,-0.00006561,0.00012288,-0.11575661,0.06412646,-0.10189794,0.119881
 06,0.00001912,0.00004026,-0.00002484,0.00001971,-0.00000327,0.00000865
 ,0.00001829,-0.00000877,-0.00001174,0.00000309,0.00000326,0.00000575,-
 0.00000816,-0.00000346,0.00000140,0.00000281,0.00000590,0.00000858,0.0
 0005869,0.00002820,-0.00001397,-0.00001315,0.00000808,0.00000191,0.000
 01491,0.00001680,0.00000407,0.00001248,-0.00002061,-0.00000329,-0.0000
 0579,-0.00000997,-0.00001052,0.00001033,0.00002149,-0.00002841,0.00000
 142,-0.00000499,-0.00000071,0.00000103,-0.00000090,0.00000545,-0.00002
 004,0.00000281,0.00000953,-0.00000747,-0.00000013,0.00000235,0.0000062
 3,-0.00002546,0.00001388,-0.00000077,0.00000255,-0.00000618,-0.0000139
 0,-0.00000462,0.00000302,-0.00000431,-0.00000194,-0.00000351,0.0000006
 6,0.00000046,-0.00000006,0.00000186,0.00000031,0.00000127,-0.00000468,
 0.00000073,0.00000106,-0.00001071,0.00000025,-0.00000413,0.00000291,-0
 .00000176,-0.00000249,-0.00000826,-0.00000401,0.00000291,0.00001004,0.
 00001173,0.00000070,0.00001849,0.00000805,0.00000077,-0.00000233,0.000
 00281,-0.00000090,-0.00000237,0.00000041,0.00000202,0.00000652,0.00000
 809,-0.00000499,0.00000032,-0.00000111,0.00000113,-0.00000177,-0.00000
 108,-0.00000046,-0.00000104,0.00000022,0.00000051,0.00000020,-0.000000
 76,0.00000096,0.00000034,-0.00000131,-0.00000015,0.00000017,0.00000015
 ,0.00000014,0.00000044,0.00000048,-0.00000088,0.00000054,-0.00000063,-
 0.00000095,-0.00000009,-0.00000030,-0.00000123,-0.00000012,0.00000072,
 0.00000035,0.00000008,0.00000057,0.00000008,-0.00000127,-0.00000074,0.
 00000021,-0.00000017,-0.00000079,0.00000087,-0.00008004,-0.00043525,-0
 .00012799,-0.00003930,0.00038781,-0.00019324,-0.00211862,0.00184266,0.
 00091105,0.01398046,-0.01343065,0.02342410,0.00157369,-0.00529198,-0.0
 0339040,0.00013460,0.00012866,-0.00003258,0.00120765,-0.00063857,0.001
 38079,-0.00023801,0.00019507,-0.00021401,0.00083567,0.00151330,0.00136
 259,0.00002090,0.00032094,-0.00025508,-0.00057027,-0.00028569,-0.00072
 133,-0.00003934,-0.00007544,-0.00002835,0.06339955,-0.10547651,0.09208
 634,-0.07095143,0.11431459,-0.00010075,0.00004687,0.00016701,0.0000122
 1,-0.00005785,-0.00002402,0.00000933,0.00004811,-0.00001990,0.00000295
 ,0.00000007,-0.00000631,-0.00001308,0.00000841,0.00001162,-0.00000661,
 0.00000835,-0.00000213,0.00003410,0.00003625,-0.00000782,-0.00000810,-
 0.00000972,0.00000240,-0.00000274,0.00000060,-0.00000316,-0.00000678,-
 0.00000932,-0.00001080,0.00000453,0.00000341,-0.00001589,0.00000502,0.
 00001431,-0.00001005,-0.00000101,-0.00000002,-0.00000113,-0.00000445,-
 0.00000176,0.00000044,0.00000671,-0.00000162,0.00001634,-0.00000165,0.
 00000143,-0.00000019,-0.00000947,-0.00001563,-0.00000035,0.00000096,-0
 .00000226,0.00000456,-0.00000301,-0.00001218,0.00001912,0.00000136,-0.
 00000549,0.00000872,-0.00000139,0.00000253,0.00000497,0.00000020,0.000
 00025,-0.00000119,0.00000098,0.00000011,-0.00000129,-0.00000023,0.,0.0
 0000843,-0.00000034,-0.00000376,0.00000346,-0.00000604,-0.00000002,0.0
 0000159,0.00000086,0.00000740,0.00000133,-0.00000567,0.00000693,-0.000
 00344,0.00000147,-0.00000174,-0.00000126,-0.00000142,0.00000020,0.0000
 0336,0.00000684,0.00001100,-0.00000454,-0.00000038,-0.00000149,0.00000
 247,0.00000018,-0.00000082,-0.00000050,-0.00000052,0.00000048,0.000001
 08,0.00000020,-0.00000216,0.00000009,-0.00000110,-0.00000144,-0.000000
 44,0.00000021,0.00000057,-0.00000050,0.00000071,0.00000046,0.00000005,
 0.00000113,-0.00000031,-0.00000070,-0.00000051,0.00000075,-0.00000038,
 0.00000127,0.00000025,0.00000013,0.00000037,-0.00000042,0.00000134,-0.
 00000126,0.00000020,-0.00000019,-0.00000065,-0.00000155,0.00000078,0.0
 0014919,-0.00042563,-0.00012953,0.00001172,0.00009770,0.00004166,-0.00
 054370,-0.00000500,0.00180350,0.00642594,-0.00609802,0.00592486,0.0006
 6633,-0.00106901,0.00013971,0.00010908,-0.00009486,-0.00008725,0.00017
 480,-0.00035531,0.00035117,-0.00006259,-0.00023927,0.00021516,0.000477
 28,-0.00018288,0.00058516,0.00014590,0.00002964,0.00011662,0.00008785,
 0.00007852,0.00015023,-0.00012190,0.00004425,-0.00000630,-0.10316744,0
 .09570832,-0.19549812,0.11058931,-0.10068740,0.20538428,0.00009722,-0.
 00001916,-0.00012099,-0.00001619,0.00004752,-0.00000002,0.00001930,-0.
 00007117,-0.00000620,-0.00000457,0.00000363,0.00000521,0.00001245,-0.0
 0000440,-0.00000703,0.00000517,-0.00000938,-0.00000039,-0.00001051,-0.
 00002947,-0.00002358,0.00001352,0.00001018,-0.00000560,-0.00001517,0.0
 0000748,0.00000448,-0.00000259,0.00000331,0.00000833,0.00000716,-0.000
 00565,0.00000992,-0.00000766,-0.00000630,0.00001414,0.00000035,0.00000
 632,0.00000147,-0.00000075,0.00000039,-0.00000149,0.00000806,0.0000082
 4,-0.00001063,0.00000522,-0.00000072,-0.00000054,-0.00000117,0.0000038
 5,-0.00000605,-0.00000056,-0.00000050,0.00000135,0.00000897,0.00001664
 ,-0.00000347,0.00000038,0.00000562,-0.00000661,0.00000070,-0.00000259,
 -0.00000342,-0.00000098,0.00000166,0.00000094,0.00000113,-0.00000043,0
 .00000097,0.00000981,-0.00000457,-0.00000431,-0.00000368,0.00000573,0.
 00000328,0.00000974,0.00000279,-0.00000423,-0.00001446,-0.00000388,-0.
 00000420,-0.00001109,-0.00001405,-0.00000059,0.00000028,-0.00000015,0.
 00000045,0.00000161,0.00000015,-0.00000167,-0.00000564,-0.00000997,0.0
 0000437,-0.00000006,0.00000137,-0.00000061,0.00000105,0.00000071,0.000
 00022,0.00000050,-0.00000142,-0.00000051,-0.00000071,0.00000156,-0.000
 00052,0.00000025,0.00000164,0.00000170,-0.00000074,0.00000011,-0.00000
 002,-0.00000190,-0.00000115,0.00000080,-0.00000098,0.00000104,0.000001
 55,0.00000045,0.00000029,0.00000110,0.00000039,-0.00000136,-0.00000097
 ,0.,-0.00000044,-0.00000042,0.00000261,0.00000127,-0.00000042,0.000000
 14,0.00000144,-0.00000161,-0.00006954,0.00031860,0.00010854,0.00003938
 ,0.00000675,-0.00000424,0.00145709,0.00005659,-0.00082290,0.00667056,0
 .00698292,0.00357736,0.00084885,0.00043498,0.00034962,0.00012941,0.000
 02220,0.00012489,0.00015492,-0.00003160,0.00008241,-0.00000920,-0.0000
 2787,-0.00011690,0.00032881,0.00104242,0.00057861,0.00032907,0.0003213
 3,0.00019810,0.00001527,0.00012321,0.00020398,0.00009405,0.00023654,-0
 .00010249,-0.22134843,-0.12377968,-0.05776042,-0.01013658,-0.00822615,
 -0.00140869,0.23325747,0.00000620,0.00005212,-0.00002456,-0.00002279,-
 0.00001010,-0.00001962,-0.00001059,-0.00001511,-0.00002133,-0.00000499
 ,0.00000623,0.00000092,0.00000533,0.00000472,0.00000138,0.00000200,0.0
 0000295,-0.00000474,-0.00000257,0.00000898,-0.00004377,0.00001247,0.00
 000759,-0.00000630,-0.00000066,0.00001460,-0.00001208,-0.00001626,-0.0
 0001356,0.00000624,0.00000240,-0.00000324,0.00000165,0.00000015,-0.000
 00127,0.00001374,0.00000064,0.00000908,0.00000262,-0.00000384,-0.00000
 120,-0.00000053,0.00001264,0.00000915,-0.00000150,0.00000454,0.0000020
 2,-0.00000164,-0.00000337,-0.00001256,-0.00000499,0.00000280,0.0000007
 8,0.00000032,0.00000666,0.00000361,0.00000504,0.00000016,-0.00000182,0
 .00000176,-0.00000020,0.00000036,0.00000074,-0.00000087,0.00000197,0.0
 0000035,0.00000299,-0.00000019,-0.00000037,-0.00000029,0.00000129,0.00
 000238,0.00000082,-0.00000238,0.00000050,-0.00000139,0.00000324,0.0000
 0036,0.00000325,0.00000177,0.00000009,-0.00001031,-0.00000779,-0.00000
 184,0.00000176,-0.00000020,0.00000010,0.00000119,0.00000049,-0.0000002
 8,-0.00000304,0.00000022,0.00000167,-0.00000032,-0.00000029,0.00000023
 ,0.00000143,0.00000008,0.00000018,0.00000119,-0.00000030,-0.00000012,0
 .00000018,0.00000006,-0.00000052,-0.00000170,0.00000132,-0.00000131,0.
 00000111,-0.00000031,0.00000019,0.00000047,-0.00000031,-0.00000042,0.0
 0000078,0.00000010,-0.00000046,-0.00000007,-0.00000001,0.00000052,0.00
 000051,-0.00000049,-0.00000007,-0.00000016,-0.00000019,0.00000049,-0.0
 0000070,0.00000069,0.00000035,-0.00000035,-0.00000035,0.00000065,0.000
 19923,-0.00044089,0.00006794,0.00016671,0.00043191,-0.00003670,-0.0004
 7705,0.00204765,0.00212007,-0.02505662,-0.01605039,-0.00641846,-0.0015
 7395,0.00148266,-0.00052837,0.00086392,-0.00022544,0.00042054,0.000233
 85,0.00033109,-0.00011738,0.00005192,-0.00006720,0.00002815,0.00347422
 ,-0.00523260,-0.00203497,-0.00159506,-0.00084662,-0.00073083,0.0000039
 2,0.00014378,-0.00011366,0.00024383,0.00025160,0.00016378,-0.11996295,
 -0.13130840,-0.03935861,0.01258218,0.00863392,0.00331206,0.13090925,0.
 14241601,-0.00008178,0.00011451,0.00011757,0.00004678,-0.00004011,-0.0
 0005332,0.00008253,-0.00006714,-0.00004561,-0.00000278,0.00001371,0.00
 000119,-0.00001430,0.00000292,0.00001176,-0.00001426,0.00000586,-0.000
 00271,-0.00004711,0.00001004,-0.00014631,0.00001438,0.00000186,0.00000
 002,-0.00005561,0.00003370,-0.00001475,-0.00001394,-0.00000938,-0.0000
 1286,0.00004067,-0.00001317,-0.00001972,-0.00000629,-0.00000344,0.0000
 2056,0.00000120,0.00001110,0.00000150,-0.00000915,-0.00000304,-0.00000
 212,0.00002142,0.00001134,0.00001361,0.00000705,-0.00000034,-0.0000039
 3,-0.00001916,-0.00000358,-0.00001015,0.00000564,-0.00000033,0.0000105
 4,-0.00000761,0.00001008,0.00005087,0.00000773,-0.00000399,0.00000884,
 -0.00000201,0.00000146,0.00000605,-0.00000003,0.00000588,0.00000057,0.
 00000064,-0.00000141,-0.00000203,0.00002305,-0.00000302,0.00001700,-0.
 00000138,0.00000230,0.00001410,0.00001271,0.00000630,-0.00001349,-0.00
 002869,0.00000422,-0.00001421,-0.00002311,-0.00001709,-0.00000990,0.00
 000172,-0.00000038,-0.00000219,0.00000015,0.00000130,0.00000588,0.0000
 1597,0.00001069,-0.00000677,-0.00000043,-0.00000127,0.00000714,-0.0000
 0024,-0.00000107,-0.00000240,-0.00000317,-0.00000367,0.00000217,-0.000
 00313,-0.00000283,0.00000014,-0.00000210,-0.00000189,0.00000467,-0.000
 00236,0.00000134,0.00000098,-0.00000179,0.00000031,0.00000537,-0.00000
 269,0.00000176,0.00000252,0.00000094,0.00000129,-0.00000028,0.00000469
 ,-0.00000078,-0.00000316,0.00000166,-0.00000055,-0.00000047,0.00000349
 ,0.00000259,-0.00000285,0.00000127,0.00000027,-0.00000237,0.00029191,-
 0.00066915,-0.00027214,-0.00000368,0.00052270,-0.00004572,-0.00090943,
 0.00066184,0.00115604,-0.00811902,-0.00544712,-0.00447179,0.00014185,0
 .00102956,-0.00004067,0.00002099,0.00018546,0.00044194,0.00005783,0.00
 000677,-0.00015139,0.00011747,0.00008788,-0.00000013,0.00134356,-0.001
 89125,-0.00048784,-0.00055266,-0.00056558,0.00031808,0.00029593,0.0001
 2821,0.00025213,-0.00022951,-0.00000162,0.00017926,-0.05673357,-0.0389
 8722,-0.06413676,-0.01638366,-0.01368670,-0.00470961,0.06168125,0.0441
 5129,0.06395755,-0.00027665,0.00014552,0.00038852,0.00002926,-0.000133
 20,-0.00006309,0.00002800,0.00011126,-0.00002559,0.00000993,0.00000471
 ,-0.00001955,-0.00003483,0.00001806,0.00003130,-0.00002020,0.00001745,
 -0.00001012,-0.00002029,0.00002636,-0.00004623,-0.00000568,-0.00002780
 ,0.00000195,-0.00002707,0.00000280,-0.00001120,-0.00001103,-0.00000154
 ,-0.00002200,0.00002019,0.00000487,-0.00002043,0.00000173,-0.00000629,
 0.00000106,-0.00000009,-0.00000011,-0.00000220,-0.00000632,-0.00000280
 ,-0.00000181,0.00001402,-0.00000498,0.00002155,0.00000107,0.00000030,-
 0.00000279,-0.00001850,0.00000608,-0.00001029,0.00000410,-0.00000175,0
 .00001253,-0.00001091,-0.00001315,0.00003897,0.00000798,-0.00001213,0.
 00002061,-0.00000331,0.00000541,0.00001012,0.00000127,0.00000202,-0.00
 000146,0.00000090,-0.00000136,-0.00000325,-0.00000144,0.00001060,0.000
 02391,0.00000459,-0.00000768,0.00000512,0.00000269,0.00000068,-0.00000
 621,-0.00000219,-0.00000392,-0.00000200,-0.00001063,0.00000431,-0.0000
 0679,0.00000202,-0.00000145,-0.00000160,-0.00000109,0.00000009,0.00000
 554,0.00001600,0.00001530,-0.00000770,-0.00000037,-0.00000198,0.000005
 37,-0.00000089,-0.00000116,-0.00000182,-0.00000268,-0.00000037,0.00000
 200,-0.00000091,-0.00000301,0.00000024,-0.00000146,-0.00000251,0.00000
 126,-0.00000081,0.00000075,0.00000051,0.00000010,0.00000079,0.00000231
 ,-0.00000078,-0.00000036,0.00000049,0.00000011,0.00000078,-0.00000076,
 0.00000258,0.00000061,-0.00000117,0.00000106,-0.00000026,0.00000007,0.
 00000050,0.00000055,-0.00000143,0.00000068,-0.00000080,-0.00000052,0.0
 0100022,-0.00134525,-0.00041971,-0.00016181,0.00066393,-0.00006943,-0.
 00110576,0.00301316,0.00242799,-0.00617703,-0.00433348,0.00503681,0.00
 008616,-0.00060740,0.00010467,-0.00002929,0.00007338,0.00009437,0.0001
 6797,-0.00002482,-0.00018298,0.00004045,0.00058026,-0.00031907,-0.0001
 1781,-0.00072600,-0.00036839,0.00001303,0.00013493,-0.00016422,0.00004
 434,0.00002564,-0.00010323,0.00041236,-0.00030400,-0.00024464,-0.14647
 377,-0.01554083,0.13390983,0.01072830,0.00100638,-0.01344751,-0.011868
 20,-0.00005061,0.01903016,0.15375019,0.00041143,-0.00037224,-0.0005733
 7,-0.00001911,0.00019903,-0.00001163,0.00000845,-0.00022461,0.00002137
 ,-0.00001337,0.00000313,0.00002147,0.00004095,-0.00002368,-0.00003806,
 0.00003549,-0.00004187,0.00001197,0.00000600,-0.00003619,-0.00002760,0
 .00002316,0.00004385,-0.00001397,-0.00000021,0.00003408,0.00001240,0.0
 0001902,-0.00000426,0.00001442,-0.00000170,-0.00002106,0.00000749,-0.0
 0000614,0.00001060,0.00000255,0.00000086,0.00000224,0.00000303,0.00000
 383,0.00000187,0.00000258,-0.00001690,0.00001006,-0.00001375,0.0000010
 8,-0.00000105,0.00000131,0.00002036,-0.00001325,0.00001368,0.,0.000004
 42,-0.00001455,0.00000038,0.00001938,-0.00001078,-0.00000953,0.0000182
 1,-0.00003272,0.00000519,-0.00000849,-0.00001101,-0.00000099,0.0000005
 1,0.00000231,-0.00000297,0.00000143,0.00000327,0.00001367,-0.00001711,
 -0.00002455,-0.00000518,0.00001331,0.00000294,0.00000268,0.00000292,-0
 .00000230,-0.00001479,0.00000976,-0.00000303,0.00000794,-0.00001140,0.
 00000166,-0.00000245,0.00000267,-0.00000025,0.00000006,0.00000101,-0.0
 0000136,-0.00000478,-0.00000574,0.00000061,0.00000045,0.00000101,-0.00
 000077,0.00000008,-0.00000004,0.00000033,0.00000053,-0.00000258,-0.000
 00040,-0.00000104,0.00000087,0.00000059,-0.00000047,0.00000091,0.00000
 182,-0.00000082,0.00000006,0.00000026,-0.00000090,-0.00000043,0.000001
 49,-0.00000128,0.00000212,0.00000092,0.00000059,-0.00000030,-0.0000000
 2,0.00000060,-0.00000100,-0.00000106,0.00000030,0.00000042,-0.00000041
 ,0.00000119,0.00000121,-0.00000071,0.00000033,0.00000044,-0.00000069,0
 .00013158,0.00175861,-0.00021556,-0.00006479,-0.00052669,0.00010733,0.
 00429663,-0.00561536,-0.00504351,0.01453191,0.00605646,-0.01975469,-0.
 00016847,0.00088858,-0.00013106,0.00002305,-0.00002072,0.00008795,-0.0
 0029251,0.00011408,-0.00008956,0.00030835,-0.00045050,0.00027649,0.000
 08303,0.00087399,0.00003268,0.00014405,0.00015630,0.00025093,-0.000078
 25,-0.00003103,-0.00000597,-0.00030971,-0.00052979,-0.00017531,-0.0183
 4781,-0.05035928,0.02446744,-0.00970745,-0.00177056,0.00981753,-0.0083
 3567,-0.00162886,0.01439854,0.01728405,0.05148452,0.00030848,-0.000141
 61,-0.00046161,-0.00008081,0.00015575,0.00005292,-0.00004045,-0.000115
 29,0.00006202,-0.00001337,-0.00000654,0.00002320,0.00003938,-0.0000157
 7,-0.00002936,0.00002858,-0.00003069,0.00000595,-0.00004931,-0.0000420
 8,0.00003659,0.00003511,0.00002171,-0.00002359,0.00002634,0.00000442,0
 .00001325,0.00001825,0.00002335,0.00002674,-0.00003055,-0.00000423,0.0
 0003713,-0.00000855,-0.00001655,0.00001623,0.00000065,-0.00000475,0.00
 000227,0.00001187,0.00000471,-0.00000015,-0.00001926,-0.00000470,-0.00
 003483,0.00000142,-0.00000131,0.00000201,0.00002672,0.00001725,0.00000
 780,-0.00000244,0.00000560,-0.00001050,0.00001505,0.00001448,-0.000056
 17,-0.00000915,0.00001616,-0.00002470,0.00000447,-0.00000649,-0.000013
 02,-0.00000103,-0.00000393,0.00000193,0.00000004,0.00000056,0.00000366
 ,-0.00001755,-0.00000143,-0.00001950,0.00000049,0.00000708,-0.00000967
 ,0.00000378,-0.00000089,0.00000328,0.00000751,-0.00001203,0.00000796,0
 .00001309,-0.00000101,0.00001033,-0.00000145,0.00000091,0.00000313,0.0
 0000273,-0.00000103,-0.00000867,-0.00002376,-0.00002152,0.00001201,0.0
 0000060,0.00000281,-0.00000796,0.00000136,0.00000163,0.00000249,0.0000
 0388,0.00000104,-0.00000332,0.00000249,0.00000498,-0.00000019,0.000001
 26,0.00000402,-0.00000289,0.00000201,-0.00000174,-0.00000047,-0.000000
 18,-0.00000159,-0.00000353,0.00000092,0.00000034,-0.00000091,-0.000000
 10,-0.00000138,0.00000135,-0.00000344,-0.00000099,0.00000132,-0.000001
 51,0.00000052,-0.00000006,-0.00000060,-0.00000046,0.00000179,-0.000000
 77,0.00000110,0.00000089,-0.00052378,0.00164630,0.00119645,-0.00000616
 ,-0.00084936,-0.00009318,0.00228667,-0.00332648,-0.00180528,0.00330845
 ,0.00485001,-0.00734202,-0.00048680,0.00079159,-0.00008212,-0.00008334
 ,-0.00004577,0.00003962,-0.00016637,-0.00015078,0.00012110,-0.00019579
 ,0.00022940,0.00052189,0.00008338,0.00075121,0.00010283,-0.00015762,-0
 .00002421,0.00023750,0.00009261,-0.00007602,-0.00002037,-0.00034759,-0
 .00048767,0.00026330,0.13418606,0.02081690,-0.22207273,0.01387950,0.00
 021406,-0.01442463,-0.00653329,-0.00082087,0.00807961,-0.14558810,-0.0
 2336874,0.23565289\\-0.00001242,-0.00000963,0.00001343,-0.00000151,0.0
 0000191,-0.00000200,-0.00000393,0.00000031,0.00000060,-0.00000155,-0.0
 0000016,-0.00000051,0.00000265,-0.00000126,-0.00000147,0.00000145,0.00
 000729,0.00000010,0.00000092,-0.00000267,0.00000248,0.00000244,-0.0000
 0071,-0.00000251,-0.00000031,0.00000112,0.00000073,-0.00000295,0.00000
 070,-0.00000392,0.00000332,-0.00000722,-0.00000398,0.00000070,0.000003
 38,0.00000258,0.00000086,0.00000010,-0.00000024,-0.00000010,0.00000265
 ,-0.00000291,-0.00000048,-0.00000412,0.00000785,-0.00000152,0.00000083
 ,-0.00000034,-0.00000017,0.00000189,0.00000203,-0.00000121,0.00000020,
 0.00000165,-0.00000950,-0.00000030,0.00000610,-0.00000326,-0.00000112,
 -0.00000337,-0.00000382,0.00000187,-0.00000386,-0.00000061,0.00000095,
 -0.00000172,-0.00000190,-0.00000061,-0.00000184,0.00000005,0.00000062,
 0.00000141,0.00000090,0.00000167,0.00000133,0.00000018,-0.00000049,-0.
 00000104,0.00000086,-0.00000055,0.00000149,0.00000800,0.00000524,0.000
 00030,-0.00000117,-0.00000097,-0.00000112,-0.00000153,0.00000078,-0.00
 000132,-0.00000191,-0.00000293,-0.00000472,0.00000088,0.00000115,-0.00
 000247,-0.00000168,0.00000034,-0.00000069,0.00000074,0.00000206,0.0000
 0209,-0.00000115,0.00000205,0.00000011,0.00000011,-0.00000098,-0.00000
 072,-0.00000039,-0.00000022,0.00000034,-0.00000084,0.00000262,-0.00000
 072,0.00000166,-0.00000005,0.00000266,-0.00000026,0.00000138,0.0000004
 8,-0.00000016,0.,-0.00000064,-0.00000002,0.00000190,0.00000218,0.00000
 094,-0.00000082,0.00000099,0.00000051,0.00000065,0.00000088,0.00001305
 ,-0.00000147,-0.00001477,-0.00000010,-0.00000284,-0.00000280,-0.000013
 31,0.00000650,0.00000751,0.00001335,-0.00000006,-0.00000977,-0.0000010
 8,-0.00000154,0.00000136,0.00000210,-0.00000195,0.00000002,0.00000068,
 -0.00000161,0.00000141,0.00000130,-0.00000144,0.00000038,-0.00000022,0
 .00000225,0.00000201,0.00000158,-0.00000220,-0.00000045,0.00000160,0.0
 0000003,0.00000003,0.00000117,-0.00000225,-0.00000051,0.00000033,0.000
 00014,0.00000369,0.00000275,-0.00000011,0.00000096,0.00000209,-0.00000
 126,0.00000087,0.00000189,-0.00000102,0.00000034\\\@


 IT IS BY LOGIC THAT WE PROVE, BUT BY INTUITION THAT WE DISCOVER.
     -- J.H.POINCARE (1854-1912)
 Job cpu time:       0 days 21 hours  0 minutes 46.2 seconds.
 Elapsed time:       0 days  1 hours  3 minutes  5.4 seconds.
 File lengths (MBytes):  RWF=   2013 Int=      0 D2E=      0 Chk=     44 Scr=      1
 Normal termination of Gaussian 16 at Fri Mar 12 21:04:30 2021.
